/*--------------------------------*- C++ -*----------------------------------*\
  =========                 |
  \\      /  F ield         | OpenFOAM: The Open Source CFD Toolbox
   \\    /   O peration     | Website:  https://openfoam.org
    \\  /    A nd           | Version:  7
     \\/     M anipulation  |
\*---------------------------------------------------------------------------*/
FoamFile
{
    version     2.0;
    format      ascii;
    class       volScalarField;
    location    "25";
    object      C;
}
// * * * * * * * * * * * * * * * * * * * * * * * * * * * * * * * * * * * * * //

dimensions      [0 0 0 0 0 0 0];

internalField   nonuniform List<scalar> 
5625
(
0.01
0.01
0.01
0.01
0.01
0.01
0.01
0.01
0.01
0.01
0.01
0.01
0.01
0.01
0.01
0.01
0.01
0.01
0.01
0.01
0.01
0.01
0.01
0.01
0.01
0.01
0.01
0.01
0.01
0.01
0.01
0.01
0.01
0.01
0.01
0.01
0.01
0.01
0.01
0.01
0.00999999
0.00999999
0.00999999
0.00999999
0.00999999
0.00999999
0.00999998
0.00999998
0.00999998
0.00999997
0.00999997
0.00999996
0.00999995
0.00999995
0.00999994
0.00999993
0.00999992
0.00999991
0.0099999
0.00999989
0.00999987
0.00999986
0.00999984
0.00999982
0.0099998
0.00999978
0.00999976
0.00999974
0.00999971
0.00999969
0.00999966
0.00999964
0.00999961
0.0099996
0.00999959
0.01
0.01
0.01
0.01
0.01
0.01
0.01
0.01
0.01
0.01
0.01
0.01
0.01
0.01
0.01
0.01
0.01
0.01
0.01
0.01
0.01
0.01
0.01
0.01
0.01
0.01
0.01
0.01
0.01
0.01
0.01
0.01
0.01
0.01
0.01
0.01
0.01
0.01
0.01
0.01
0.00999999
0.00999999
0.00999999
0.00999999
0.00999999
0.00999998
0.00999998
0.00999998
0.00999997
0.00999997
0.00999997
0.00999996
0.00999995
0.00999995
0.00999994
0.00999993
0.00999992
0.00999991
0.0099999
0.00999989
0.00999987
0.00999986
0.00999984
0.00999982
0.0099998
0.00999978
0.00999976
0.00999973
0.00999971
0.00999968
0.00999966
0.00999963
0.00999961
0.00999959
0.00999958
0.01
0.01
0.01
0.01
0.01
0.01
0.01
0.01
0.01
0.01
0.01
0.01
0.01
0.01
0.01
0.01
0.01
0.01
0.01
0.01
0.01
0.01
0.01
0.01
0.01
0.01
0.01
0.01
0.01
0.01
0.01
0.01
0.01
0.01
0.01
0.01
0.01
0.01
0.01
0.00999999
0.00999999
0.00999999
0.00999999
0.00999999
0.00999999
0.00999998
0.00999998
0.00999998
0.00999997
0.00999997
0.00999996
0.00999996
0.00999995
0.00999994
0.00999993
0.00999992
0.00999991
0.0099999
0.00999989
0.00999988
0.00999986
0.00999985
0.00999983
0.00999981
0.00999979
0.00999977
0.00999974
0.00999972
0.00999969
0.00999967
0.00999964
0.00999961
0.00999958
0.00999956
0.00999955
0.01
0.01
0.01
0.01
0.01
0.01
0.01
0.01
0.01
0.01
0.01
0.01
0.01
0.01
0.01
0.01
0.01
0.01
0.01
0.01
0.01
0.01
0.01
0.01
0.01
0.01
0.01
0.01
0.01
0.01
0.01
0.01
0.01
0.01
0.01
0.01
0.01
0.00999999
0.00999999
0.00999999
0.00999999
0.00999999
0.00999999
0.00999998
0.00999998
0.00999998
0.00999997
0.00999997
0.00999996
0.00999996
0.00999995
0.00999994
0.00999993
0.00999993
0.00999992
0.00999991
0.0099999
0.00999988
0.00999987
0.00999985
0.00999984
0.00999982
0.0099998
0.00999978
0.00999976
0.00999974
0.00999971
0.00999969
0.00999966
0.00999963
0.0099996
0.00999957
0.00999954
0.00999952
0.0099995
0.01
0.01
0.01
0.01
0.01
0.01
0.01
0.01
0.01
0.01
0.01
0.01
0.01
0.01
0.01
0.01
0.01
0.01
0.01
0.01
0.01
0.01
0.01
0.01
0.01
0.01
0.01
0.01
0.01
0.01
0.01
0.01
0.01
0.01
0.01
0.00999999
0.00999999
0.00999999
0.00999999
0.00999999
0.00999998
0.00999998
0.00999998
0.00999997
0.00999997
0.00999996
0.00999996
0.00999995
0.00999994
0.00999993
0.00999993
0.00999992
0.00999991
0.0099999
0.00999989
0.00999987
0.00999986
0.00999984
0.00999983
0.00999981
0.00999979
0.00999977
0.00999975
0.00999973
0.00999971
0.00999968
0.00999965
0.00999962
0.00999959
0.00999956
0.00999953
0.0099995
0.00999946
0.00999943
0.00999941
0.01
0.01
0.01
0.01
0.01
0.01
0.01
0.01
0.01
0.01
0.01
0.01
0.01
0.01
0.01
0.01
0.01
0.01
0.01
0.01
0.01
0.01
0.01
0.01
0.01
0.01
0.01
0.01
0.01
0.01
0.01
0.01
0.01
0.00999999
0.00999999
0.00999999
0.00999999
0.00999998
0.00999998
0.00999997
0.00999997
0.00999996
0.00999996
0.00999995
0.00999994
0.00999993
0.00999992
0.00999991
0.0099999
0.00999989
0.00999988
0.00999987
0.00999986
0.00999984
0.00999983
0.00999981
0.00999979
0.00999978
0.00999976
0.00999974
0.00999971
0.00999969
0.00999967
0.00999964
0.00999961
0.00999958
0.00999955
0.00999952
0.00999948
0.00999945
0.00999941
0.00999937
0.00999934
0.0099993
0.00999928
0.01
0.01
0.01
0.01
0.01
0.01
0.01
0.01
0.01
0.01
0.01
0.01
0.01
0.01
0.01
0.01
0.01
0.01
0.01
0.01
0.01
0.01
0.01
0.01
0.01
0.01
0.01
0.01
0.01
0.01
0.01
0.00999999
0.00999999
0.00999999
0.00999998
0.00999998
0.00999997
0.00999996
0.00999996
0.00999995
0.00999994
0.00999993
0.00999992
0.0099999
0.00999989
0.00999988
0.00999986
0.00999985
0.00999983
0.00999981
0.0099998
0.00999978
0.00999976
0.00999974
0.00999972
0.0099997
0.00999968
0.00999965
0.00999963
0.0099996
0.00999958
0.00999955
0.00999952
0.00999949
0.00999945
0.00999942
0.00999938
0.00999934
0.0099993
0.00999926
0.00999922
0.00999918
0.00999914
0.0099991
0.00999907
0.01
0.01
0.01
0.01
0.01
0.01
0.01
0.01
0.01
0.01
0.01
0.01
0.01
0.01
0.01
0.01
0.01
0.01
0.01
0.01
0.01
0.01
0.01
0.01
0.01
0.01
0.01
0.01
0.01
0.00999999
0.00999999
0.00999998
0.00999998
0.00999997
0.00999996
0.00999995
0.00999993
0.00999992
0.0099999
0.00999989
0.00999987
0.00999985
0.00999983
0.00999981
0.00999979
0.00999976
0.00999974
0.00999972
0.00999969
0.00999967
0.00999964
0.00999962
0.00999959
0.00999956
0.00999954
0.00999951
0.00999948
0.00999945
0.00999942
0.00999939
0.00999935
0.00999932
0.00999928
0.00999924
0.0099992
0.00999916
0.00999912
0.00999907
0.00999903
0.00999898
0.00999893
0.00999888
0.00999883
0.00999878
0.00999875
0.01
0.01
0.01
0.01
0.01
0.01
0.01
0.01
0.01
0.01
0.01
0.01
0.01
0.01
0.01
0.01
0.01
0.01
0.01
0.01
0.01
0.01
0.01
0.01
0.01
0.01
0.01
0.00999999
0.00999999
0.00999998
0.00999997
0.00999996
0.00999995
0.00999993
0.00999991
0.00999988
0.00999985
0.00999982
0.00999979
0.00999976
0.00999972
0.00999969
0.00999965
0.00999961
0.00999957
0.00999954
0.0099995
0.00999946
0.00999942
0.00999938
0.00999935
0.00999931
0.00999928
0.00999924
0.00999921
0.00999917
0.00999914
0.0099991
0.00999906
0.00999902
0.00999898
0.00999894
0.0099989
0.00999885
0.0099988
0.00999876
0.0099987
0.00999865
0.0099986
0.00999854
0.00999848
0.00999842
0.00999837
0.00999831
0.00999827
0.01
0.01
0.01
0.01
0.01
0.01
0.01
0.01
0.01
0.01
0.01
0.01
0.01
0.01
0.01
0.01
0.01
0.01
0.01
0.01
0.01
0.01
0.01
0.01
0.01
0.01
0.00999999
0.00999998
0.00999997
0.00999996
0.00999994
0.00999991
0.00999987
0.00999983
0.00999978
0.00999973
0.00999967
0.00999961
0.00999955
0.00999948
0.00999941
0.00999934
0.00999928
0.00999921
0.00999914
0.00999908
0.00999902
0.00999896
0.00999891
0.00999885
0.0099988
0.00999876
0.00999871
0.00999867
0.00999863
0.00999859
0.00999854
0.0099985
0.00999846
0.00999842
0.00999837
0.00999833
0.00999828
0.00999823
0.00999817
0.00999812
0.00999806
0.009998
0.00999794
0.00999787
0.0099978
0.00999774
0.00999767
0.00999761
0.00999756
0.01
0.01
0.01
0.01
0.01
0.01
0.01
0.01
0.01
0.01
0.01
0.01
0.01
0.01
0.01
0.01
0.01
0.01
0.01
0.01
0.01
0.01
0.01
0.01
0.00999999
0.00999999
0.00999998
0.00999996
0.00999994
0.0099999
0.00999985
0.00999979
0.00999971
0.00999961
0.0099995
0.00999938
0.00999925
0.00999913
0.009999
0.00999888
0.00999875
0.00999862
0.0099985
0.00999838
0.00999828
0.00999818
0.00999808
0.009998
0.00999793
0.00999786
0.0099978
0.00999774
0.0099977
0.00999765
0.00999761
0.00999757
0.00999753
0.0099975
0.00999746
0.00999742
0.00999738
0.00999733
0.00999729
0.00999724
0.00999718
0.00999712
0.00999706
0.009997
0.00999693
0.00999686
0.00999678
0.00999671
0.00999663
0.00999656
0.00999651
0.01
0.01
0.01
0.01
0.01
0.01
0.01
0.01
0.01
0.01
0.01
0.01
0.01
0.01
0.01
0.01
0.01
0.01
0.01
0.01
0.01
0.01
0.01
0.00999999
0.00999999
0.00999997
0.00999995
0.00999991
0.00999985
0.00999977
0.00999966
0.0099995
0.00999932
0.0099991
0.00999885
0.00999859
0.00999833
0.00999808
0.00999783
0.00999759
0.00999735
0.00999712
0.00999691
0.00999672
0.00999655
0.0099964
0.00999627
0.00999616
0.00999608
0.00999601
0.00999595
0.00999591
0.00999588
0.00999586
0.00999585
0.00999583
0.00999582
0.00999581
0.0099958
0.00999579
0.00999577
0.00999574
0.00999571
0.00999567
0.00999563
0.00999558
0.00999552
0.00999546
0.0099954
0.00999532
0.00999525
0.00999517
0.00999509
0.00999502
0.00999496
0.01
0.01
0.01
0.01
0.01
0.01
0.01
0.01
0.01
0.01
0.01
0.01
0.01
0.01
0.01
0.01
0.01
0.01
0.01
0.01
0.01
0.01
0.00999999
0.00999998
0.00999997
0.00999993
0.00999988
0.00999979
0.00999966
0.00999946
0.0099992
0.00999886
0.00999844
0.00999795
0.00999742
0.00999687
0.00999633
0.00999583
0.00999534
0.00999488
0.00999445
0.00999405
0.0099937
0.0099934
0.00999315
0.00999296
0.00999281
0.00999271
0.00999265
0.00999262
0.00999262
0.00999265
0.00999269
0.00999275
0.00999282
0.00999289
0.00999296
0.00999302
0.00999308
0.00999313
0.00999318
0.00999321
0.00999323
0.00999323
0.00999323
0.00999321
0.00999318
0.00999314
0.00999309
0.00999303
0.00999296
0.00999289
0.00999282
0.00999276
0.0099927
0.01
0.01
0.01
0.01
0.01
0.01
0.01
0.01
0.01
0.01
0.01
0.01
0.01
0.01
0.01
0.01
0.01
0.01
0.01
0.01
0.01
0.00999999
0.00999998
0.00999996
0.00999992
0.00999984
0.00999972
0.00999952
0.00999921
0.00999877
0.00999818
0.00999742
0.0099965
0.00999545
0.00999432
0.00999318
0.00999208
0.0099911
0.00999018
0.00998933
0.00998857
0.00998791
0.00998737
0.00998694
0.00998663
0.00998643
0.00998634
0.00998633
0.0099864
0.00998653
0.00998672
0.00998694
0.00998718
0.00998744
0.00998771
0.00998797
0.00998823
0.00998847
0.00998869
0.00998889
0.00998907
0.00998923
0.00998935
0.00998946
0.00998954
0.0099896
0.00998963
0.00998964
0.00998964
0.00998962
0.00998959
0.00998954
0.0099895
0.00998945
0.00998941
0.01
0.01
0.01
0.01
0.01
0.01
0.01
0.01
0.01
0.01
0.01
0.01
0.01
0.01
0.01
0.01
0.01
0.01
0.01
0.01
0.00999999
0.00999998
0.00999995
0.00999991
0.00999981
0.00999964
0.00999936
0.00999891
0.00999823
0.00999726
0.00999596
0.00999431
0.00999235
0.00999014
0.0099878
0.00998548
0.00998332
0.00998144
0.00997975
0.00997825
0.00997697
0.00997595
0.00997518
0.00997467
0.0099744
0.00997436
0.00997451
0.00997483
0.00997528
0.00997584
0.00997647
0.00997714
0.00997785
0.00997855
0.00997925
0.00997992
0.00998056
0.00998116
0.00998171
0.00998222
0.00998267
0.00998306
0.00998341
0.00998371
0.00998396
0.00998416
0.00998433
0.00998445
0.00998454
0.0099846
0.00998464
0.00998466
0.00998467
0.00998467
0.00998467
0.01
0.01
0.01
0.01
0.01
0.01
0.01
0.01
0.01
0.01
0.01
0.01
0.01
0.01
0.01
0.01
0.01
0.01
0.01
0.00999999
0.00999998
0.00999995
0.0099999
0.00999979
0.00999958
0.00999921
0.00999858
0.00999759
0.00999612
0.00999404
0.00999128
0.00998783
0.00998376
0.00997924
0.00997453
0.00996995
0.00996581
0.00996233
0.00995933
0.00995679
0.00995478
0.00995332
0.00995241
0.00995203
0.00995213
0.00995265
0.00995352
0.00995467
0.00995603
0.00995754
0.00995913
0.00996077
0.00996241
0.00996402
0.00996557
0.00996703
0.00996841
0.00996968
0.00997084
0.0099719
0.00997285
0.00997369
0.00997444
0.00997508
0.00997564
0.00997611
0.00997651
0.00997683
0.0099771
0.00997732
0.00997749
0.00997762
0.00997773
0.00997783
0.0099779
0.01
0.01
0.01
0.01
0.01
0.01
0.01
0.01
0.01
0.01
0.01
0.01
0.01
0.01
0.01
0.01
0.01
0.01
0.00999999
0.00999998
0.00999995
0.0099999
0.00999978
0.00999953
0.00999908
0.00999828
0.00999695
0.00999486
0.00999176
0.00998745
0.00998178
0.00997476
0.00996659
0.00995764
0.00994846
0.00993971
0.00993201
0.00992579
0.00992067
0.0099166
0.00991367
0.0099119
0.00991123
0.00991158
0.00991282
0.0099148
0.00991736
0.00992035
0.00992364
0.00992711
0.00993064
0.00993415
0.00993758
0.00994087
0.00994398
0.00994689
0.00994958
0.00995204
0.00995428
0.0099563
0.00995811
0.00995971
0.00996113
0.00996237
0.00996344
0.00996437
0.00996516
0.00996583
0.00996639
0.00996686
0.00996726
0.0099676
0.00996789
0.00996814
0.00996833
0.01
0.01
0.01
0.01
0.01
0.01
0.01
0.01
0.01
0.01
0.01
0.01
0.01
0.01
0.01
0.01
0.01
0.00999999
0.00999998
0.00999996
0.0099999
0.00999978
0.00999952
0.00999901
0.00999807
0.0099964
0.00999365
0.00998937
0.00998309
0.00997444
0.00996319
0.00994944
0.00993361
0.00991651
0.00989926
0.00988311
0.00986927
0.00985853
0.00985019
0.00984407
0.00984029
0.00983879
0.0098394
0.00984186
0.00984585
0.00985107
0.00985718
0.00986389
0.00987094
0.00987812
0.00988524
0.00989217
0.00989879
0.00990504
0.00991086
0.00991624
0.00992115
0.00992562
0.00992964
0.00993324
0.00993645
0.00993929
0.00994179
0.00994398
0.00994589
0.00994753
0.00994895
0.00995017
0.00995121
0.00995209
0.00995285
0.00995351
0.00995408
0.00995458
0.00995497
0.01
0.01
0.01
0.01
0.01
0.01
0.01
0.01
0.01
0.01
0.01
0.01
0.01
0.01
0.01
0.01
0.01
0.00999999
0.00999997
0.00999992
0.0099998
0.00999954
0.00999902
0.00999798
0.00999605
0.00999271
0.00998722
0.00997876
0.0099665
0.00994977
0.0099283
0.00990236
0.00987288
0.00984145
0.00981019
0.00978145
0.00975746
0.00973964
0.0097267
0.00971826
0.00971435
0.00971472
0.00971886
0.00972619
0.00973602
0.00974771
0.00976065
0.00977428
0.00978818
0.00980195
0.00981533
0.00982809
0.00984011
0.00985128
0.00986156
0.00987094
0.00987943
0.00988708
0.00989391
0.0099
0.00990538
0.00991013
0.0099143
0.00991794
0.00992112
0.00992386
0.00992624
0.00992828
0.00993004
0.00993155
0.00993285
0.00993399
0.00993499
0.00993588
0.00993656
0.01
0.01
0.01
0.01
0.01
0.01
0.01
0.01
0.01
0.01
0.01
0.01
0.01
0.01
0.01
0.01
0.00999999
0.00999997
0.00999993
0.00999983
0.0099996
0.00999909
0.00999804
0.00999599
0.00999222
0.00998572
0.00997515
0.00995905
0.00993599
0.00990493
0.00986557
0.00981861
0.00976591
0.00971045
0.00965603
0.00960679
0.00956671
0.00953829
0.00951934
0.00950901
0.00950706
0.00951271
0.00952481
0.00954205
0.0095631
0.00958673
0.00961184
0.00963752
0.00966304
0.00968783
0.00971147
0.00973369
0.0097543
0.00977323
0.00979045
0.00980601
0.00981997
0.00983244
0.0098435
0.00985329
0.00986191
0.00986948
0.00987609
0.00988186
0.00988688
0.00989123
0.00989498
0.00989823
0.00990102
0.00990343
0.00990553
0.00990736
0.00990898
0.00991041
0.00991152
0.01
0.01
0.01
0.01
0.01
0.01
0.01
0.01
0.01
0.01
0.01
0.01
0.01
0.01
0.01
0.00999999
0.00999998
0.00999995
0.00999987
0.00999967
0.00999922
0.00999824
0.00999623
0.00999232
0.0099852
0.00997301
0.00995343
0.00992394
0.00988226
0.00982691
0.00975774
0.0096763
0.00958611
0.0094924
0.00940154
0.00932038
0.00925578
0.0092122
0.00918615
0.00917593
0.00918054
0.00919802
0.00922587
0.0092615
0.00930244
0.00934653
0.00939195
0.00943727
0.00948137
0.00952347
0.00956301
0.00959967
0.00963327
0.00966379
0.00969129
0.0097159
0.00973781
0.00975723
0.00977436
0.00978942
0.00980262
0.00981416
0.00982422
0.00983297
0.00984055
0.00984713
0.0098528
0.0098577
0.00986194
0.00986559
0.00986878
0.00987157
0.00987404
0.00987622
0.0098779
0.01
0.01
0.01
0.01
0.01
0.01
0.01
0.01
0.01
0.01
0.01
0.01
0.01
0.01
0.01
0.00999999
0.00999996
0.0099999
0.00999975
0.00999938
0.00999854
0.00999672
0.00999299
0.00998581
0.00997281
0.0099508
0.00991586
0.00986395
0.00979167
0.00969716
0.00958085
0.00944585
0.00929829
0.00914696
0.00900172
0.0088729
0.00877214
0.00870768
0.0086745
0.00866928
0.00868925
0.00872995
0.00878633
0.00885355
0.00892735
0.0090042
0.00908133
0.00915666
0.00922869
0.0092964
0.00935916
0.00941666
0.00946882
0.00951575
0.00955767
0.00959491
0.00962782
0.00965679
0.00968221
0.00970444
0.00972385
0.00974075
0.00975543
0.00976817
0.0097792
0.00978873
0.00979697
0.00980407
0.00981021
0.00981552
0.00982014
0.00982419
0.00982779
0.00983095
0.0098334
0.01
0.01
0.01
0.01
0.01
0.01
0.01
0.01
0.01
0.01
0.01
0.01
0.01
0.01
0.00999999
0.00999998
0.00999993
0.00999982
0.00999955
0.00999888
0.00999737
0.0099941
0.00998743
0.00997468
0.00995183
0.00991354
0.00985357
0.0097658
0.00964558
0.00949113
0.00930428
0.00909061
0.00886005
0.00862681
0.00840507
0.00820774
0.0080545
0.00796214
0.00792378
0.0079334
0.00798433
0.00806691
0.0081714
0.00828932
0.00841382
0.00853967
0.00866305
0.00878129
0.00889263
0.00899594
0.00909064
0.00917655
0.00925379
0.00932273
0.00938386
0.0094378
0.00948519
0.00952668
0.0095629
0.00959445
0.00962188
0.00964569
0.00966632
0.00968418
0.00969961
0.00971294
0.00972444
0.00973435
0.00974291
0.00975032
0.00975676
0.00976242
0.00976743
0.00977184
0.00977524
0.01
0.01
0.01
0.01
0.01
0.01
0.01
0.01
0.01
0.01
0.01
0.01
0.01
0.01
0.00999999
0.00999996
0.00999989
0.00999969
0.00999921
0.00999805
0.00999542
0.00998974
0.00997824
0.00995642
0.00991769
0.00985356
0.00975457
0.00961204
0.00942037
0.00917897
0.00889252
0.00856984
0.00822547
0.00788251
0.0075607
0.00726791
0.0070376
0.0069088
0.00687076
0.00691289
0.00702156
0.00717554
0.00735634
0.00755019
0.00774742
0.00794128
0.00812732
0.00830273
0.00846577
0.00861549
0.0087515
0.00887391
0.00898319
0.00908009
0.0091655
0.00924045
0.00930597
0.00936308
0.00941273
0.00945583
0.00949319
0.00952552
0.00955347
0.00957762
0.00959846
0.00961643
0.00963192
0.00964527
0.00965678
0.00966675
0.00967541
0.00968301
0.00968973
0.00969564
0.00970021
0.01
0.01
0.01
0.01
0.01
0.01
0.01
0.01
0.01
0.01
0.01
0.01
0.01
0.00999999
0.00999998
0.00999993
0.00999981
0.00999948
0.00999867
0.00999672
0.00999229
0.00998279
0.00996365
0.00992763
0.00986436
0.00976097
0.00960382
0.00938151
0.00908845
0.00872754
0.00830884
0.0078441
0.00735007
0.00686708
0.00642908
0.00600681
0.00565422
0.00548384
0.00545727
0.00555732
0.00577324
0.00604468
0.0063387
0.00663719
0.00693002
0.00721054
0.00747484
0.00772083
0.00794735
0.00815381
0.00834019
0.00850696
0.00865503
0.00878564
0.00890023
0.00900032
0.00908747
0.00916315
0.00922875
0.00928551
0.00933459
0.00937698
0.00941356
0.00944511
0.0094723
0.00949572
0.00951588
0.00953324
0.00954821
0.00956115
0.0095724
0.00958225
0.00959097
0.00959861
0.00960451
0.01
0.01
0.01
0.01
0.01
0.01
0.01
0.01
0.01
0.01
0.01
0.01
0.01
0.00999999
0.00999996
0.00999989
0.00999969
0.00999916
0.00999784
0.00999467
0.00998748
0.00997213
0.0099414
0.00988404
0.00978443
0.00962393
0.00938396
0.00905065
0.00862025
0.00810327
0.00752019
0.0068829
0.00619387
0.00552846
0.00499951
0.00441078
0.00380461
0.00365229
0.00364149
0.00379659
0.00424964
0.00470202
0.00514635
0.0055727
0.00597869
0.00636015
0.00671475
0.00704213
0.0073421
0.00761442
0.00785929
0.00807747
0.00827037
0.00843979
0.00858783
0.00871666
0.00882843
0.0089252
0.00900884
0.00908106
0.00914336
0.00919708
0.00924337
0.00928325
0.00931757
0.00934711
0.00937251
0.00939437
0.0094132
0.00942946
0.00944357
0.00945593
0.00946685
0.00947642
0.00948379
0.01
0.01
0.01
0.01
0.01
0.01
0.01
0.01
0.01
0.01
0.01
0.01
0.00999999
0.00999998
0.00999994
0.00999983
0.00999951
0.00999869
0.00999661
0.00999163
0.00998038
0.00995644
0.00990883
0.00982073
0.00966959
0.00942965
0.00907702
0.00859608
0.00798687
0.00727368
0.00650018
0.00567666
0.00472288
0.00373287
0.00333272
0.00256679
0.000300517
0.000165442
0.000208357
0.00123331
0.00258437
0.00319746
0.00381459
0.00437466
0.00490644
0.00540066
0.00585505
0.00627301
0.00665569
0.00700262
0.00731365
0.00758971
0.00783269
0.00804516
0.00823003
0.0083903
0.0085289
0.00864854
0.0087517
0.00884059
0.00891715
0.00898306
0.00903979
0.0090886
0.00913057
0.00916666
0.00919767
0.00922433
0.00924727
0.00926706
0.00928422
0.00929924
0.00931249
0.0093241
0.00933304
0.01
0.01
0.01
0.01
0.01
0.01
0.01
0.01
0.01
0.01
0.01
0.01
0.00999999
0.00999997
0.00999991
0.00999974
0.00999926
0.00999801
0.00999487
0.00998733
0.00997032
0.00993429
0.0098631
0.00973259
0.00951149
0.00916603
0.00866735
0.00799864
0.00716279
0.00620203
0.00521773
0.00426233
0.00295747
0.000444317
0.000176685
0.000913872
0.000227682
0.000124286
0.000155929
0.000726328
0.000198712
0.000206735
0.00233077
0.00299635
0.00369544
0.00432521
0.0048901
0.00541054
0.00588902
0.00632227
0.00670869
0.00704935
0.00734718
0.007606
0.00783001
0.00802334
0.0081899
0.00833325
0.00845655
0.00856257
0.00865375
0.00873214
0.00879954
0.00885747
0.00890725
0.00895001
0.00898673
0.00901827
0.00904539
0.00906877
0.00908904
0.00910676
0.00912241
0.00913612
0.00914666
0.01
0.01
0.01
0.01
0.01
0.01
0.01
0.01
0.01
0.01
0.01
0.01
0.00999999
0.00999996
0.00999987
0.00999962
0.00999893
0.0099971
0.0099925
0.00998149
0.00995669
0.00990435
0.00980161
0.00961504
0.00930316
0.00882408
0.00814573
0.00725022
0.0061318
0.00482797
0.00355671
0.00279134
0.000224727
0.000325947
0.000106912
6.43089e-06
1.84653e-07
1.44026e-07
1.65591e-07
1.0713e-06
9.98042e-05
0.000158585
0.000355787
0.000196369
0.0023165
0.00311294
0.00378862
0.00443457
0.00503608
0.00557625
0.00605115
0.00646403
0.00682084
0.00712809
0.00739209
0.00761867
0.00781301
0.0079797
0.00812269
0.00824541
0.00835077
0.00844126
0.00851898
0.00858574
0.00864308
0.0086923
0.00873455
0.00877083
0.00880203
0.00882893
0.00885226
0.00887269
0.00889075
0.0089066
0.0089188
0.01
0.01
0.01
0.01
0.01
0.01
0.01
0.01
0.01
0.01
0.01
0.00999999
0.00999998
0.00999994
0.00999982
0.00999947
0.0099985
0.00999592
0.00998943
0.00997391
0.00993901
0.00986564
0.00972252
0.0094651
0.00904061
0.00840044
0.00751406
0.00636587
0.00491386
0.00305789
0.000792218
0.000434604
0.000160995
2.85222e-07
3.99053e-08
4.74956e-10
8.72659e-11
6.70138e-11
8.23716e-11
2.09554e-10
2.52142e-08
1.07863e-07
4.02606e-05
0.000154488
0.000257565
0.00173582
0.00245965
0.00330492
0.00409411
0.00477573
0.00535463
0.00584586
0.00626337
0.00661869
0.00692139
0.00717951
0.00739982
0.00758809
0.00774916
0.00788713
0.00800541
0.0081069
0.00819403
0.00826884
0.0083331
0.00838829
0.00843569
0.00847644
0.00851153
0.00854187
0.00856826
0.00859145
0.00861204
0.00863018
0.00864418
0.01
0.01
0.01
0.01
0.01
0.01
0.01
0.01
0.01
0.01
0.01
0.00999999
0.00999997
0.00999992
0.00999975
0.00999928
0.00999796
0.00999447
0.00998564
0.00996455
0.00991718
0.00981794
0.00962547
0.00928246
0.00872432
0.00789843
0.00678568
0.00539587
0.00365726
0.000666356
0.000505872
3.09545e-05
5.1047e-08
9.08657e-11
8.00162e-12
8.65616e-14
3.10313e-14
2.15716e-14
2.91789e-14
6.78193e-14
3.86145e-12
3.88771e-11
3.91856e-09
1.21646e-07
0.000105113
0.000607406
0.000391517
0.00199021
0.00310069
0.0039579
0.00464528
0.00521235
0.00568663
0.00608584
0.00642312
0.00670887
0.00695158
0.00715824
0.0073346
0.0074854
0.00761459
0.0077254
0.00782057
0.00790238
0.00797274
0.0080333
0.00808547
0.00813049
0.00816944
0.00820332
0.008233
0.00825929
0.00828282
0.0083037
0.00831986
0.01
0.01
0.01
0.01
0.01
0.01
0.01
0.01
0.01
0.01
0.01
0.00999999
0.00999997
0.00999989
0.00999968
0.00999906
0.00999734
0.00999277
0.00998121
0.00995357
0.00989159
0.00976212
0.00951231
0.00907065
0.00836038
0.0073265
0.00596979
0.0043858
0.00282977
0.000601608
1.34817e-05
3.12848e-09
8.96305e-12
2.39795e-14
1.17431e-15
2.39397e-17
8.52087e-18
5.32301e-18
7.93648e-18
2.17256e-17
4.83745e-16
1.08927e-14
3.75994e-13
4.1067e-11
1.85699e-08
2.95827e-06
0.000307055
0.000475029
0.00219002
0.00318541
0.00395152
0.00457914
0.00510082
0.00553659
0.00590201
0.00620963
0.00646965
0.00669031
0.00687825
0.00703885
0.00717646
0.00729467
0.00739643
0.00748418
0.00755998
0.00762557
0.00768247
0.00773196
0.00777521
0.00781322
0.00784694
0.00787719
0.00790459
0.00792913
0.0079482
0.01
0.01
0.01
0.01
0.01
0.01
0.01
0.01
0.01
0.01
0.01
0.00999999
0.00999996
0.00999987
0.0099996
0.00999882
0.00999666
0.0099909
0.00997632
0.00994147
0.00986337
0.00970059
0.00938779
0.00883843
0.00796305
0.00670046
0.00504284
0.00307154
0.000250856
0.000164777
3.74043e-08
5.71786e-12
1.92066e-15
5.37554e-18
1.48023e-19
6.37682e-21
1.9181e-21
1.0864e-21
1.77179e-21
6.04313e-21
6.37247e-20
2.46249e-18
5.69754e-17
1.07085e-14
3.11987e-12
2.53696e-09
1.8039e-05
0.00031346
0.00166383
0.00248735
0.00327457
0.00395067
0.00451309
0.00497832
0.00536449
0.00568707
0.00595837
0.00618799
0.00638345
0.00655067
0.00669436
0.00681831
0.0069256
0.00701879
0.00709997
0.00717094
0.00723323
0.00728814
0.00733684
0.00738034
0.00741956
0.0074553
0.00748811
0.00751777
0.00754091
0.01
0.01
0.01
0.01
0.01
0.01
0.01
0.01
0.01
0.01
0.01
0.00999998
0.00999995
0.00999984
0.00999952
0.00999858
0.00999597
0.00998899
0.00997132
0.00992906
0.00983441
0.00963742
0.00926006
0.00860107
0.00756066
0.00607568
0.00409262
0.000382735
0.000290145
2.34709e-07
7.36743e-11
1.89619e-14
4.2381e-18
1.77387e-21
1.91075e-23
1.50256e-24
3.74091e-25
1.96933e-25
3.44144e-25
1.4564e-24
1.10255e-23
4.72903e-22
1.3468e-20
3.63335e-18
5.54759e-15
1.83315e-11
5.24677e-08
9.08164e-05
0.000132643
0.00164955
0.00257246
0.00333322
0.00393997
0.00442795
0.00482623
0.00515582
0.00543187
0.00566541
0.00586469
0.00603597
0.00618413
0.00631301
0.00642571
0.00652473
0.00661217
0.00668974
0.00675893
0.006821
0.00687703
0.006928
0.00697474
0.00701798
0.00705814
0.00709469
0.00712325
0.01
0.01
0.01
0.01
0.01
0.01
0.01
0.01
0.01
0.01
0.00999999
0.00999998
0.00999994
0.00999982
0.00999944
0.00999836
0.00999532
0.00998722
0.00996666
0.0099175
0.00980737
0.00957832
0.00914033
0.00837868
0.00719013
0.00555531
0.00363332
0.000181909
0.000118284
4.67989e-08
9.45859e-12
1.40639e-15
1.78405e-19
2.26318e-23
6.1309e-27
3.15624e-28
6.70394e-29
3.44483e-29
6.19001e-29
3.11555e-28
2.4007e-27
9.8012e-26
3.74225e-23
7.09819e-20
1.32532e-16
2.19437e-13
3.32243e-10
6.13011e-07
0.000295972
0.000455436
0.00192376
0.00279401
0.00342964
0.00392394
0.00432172
0.00464934
0.00492394
0.00515729
0.00535783
0.00553181
0.00568399
0.00581806
0.00593696
0.00604303
0.00613821
0.0062241
0.00630203
0.00637316
0.00643846
0.00649878
0.00655487
0.00660732
0.00665638
0.00670117
0.00673614
0.01
0.01
0.01
0.01
0.01
0.01
0.01
0.01
0.01
0.01
0.00999999
0.00999998
0.00999994
0.0099998
0.00999938
0.00999818
0.0099948
0.00998579
0.00996291
0.00990817
0.00978551
0.00953028
0.0090417
0.00819017
0.00685576
0.00501341
0.00290423
0.000473566
4.66933e-05
3.77928e-09
3.19735e-13
4.77615e-17
1.11417e-20
2.67318e-24
5.83585e-28
1.75564e-31
1.18354e-32
6.34206e-33
1.10693e-32
6.36422e-32
4.76903e-30
6.90737e-27
1.22075e-23
2.42295e-20
4.96875e-17
9.17824e-14
1.33908e-10
1.33413e-07
5.64898e-05
7.59013e-05
0.00167402
0.00244697
0.00304846
0.00352343
0.00390813
0.00422702
0.00449645
0.00472767
0.00492865
0.00510523
0.00526178
0.00540166
0.00552754
0.00564151
0.00574529
0.0058403
0.00592772
0.00600853
0.0060836
0.00615365
0.00621931
0.00628106
0.00633898
0.00639187
0.00643306
0.01
0.01
0.01
0.01
0.01
0.01
0.01
0.01
0.01
0.01
0.00999999
0.00999998
0.00999993
0.00999979
0.00999935
0.00999807
0.00999449
0.00998492
0.00996066
0.00990259
0.00977245
0.0095014
0.00898115
0.00806744
0.0066036
0.00444348
0.00108175
0.00067917
8.03077e-07
2.02693e-10
7.42416e-14
2.42182e-17
6.58946e-21
1.52653e-24
3.10669e-28
5.75186e-32
1.22643e-35
1.28922e-36
3.5001e-36
2.37035e-33
3.65334e-30
5.34506e-27
7.9399e-24
1.35126e-20
2.71886e-17
5.55049e-14
9.40112e-11
1.0853e-07
4.98006e-05
6.91916e-05
0.0015598
0.00226782
0.00283469
0.00328932
0.00366131
0.00397247
0.00423782
0.00446777
0.00466968
0.00484891
0.00500946
0.00515438
0.00528607
0.00540643
0.00551701
0.00561907
0.00571366
0.00580168
0.00588388
0.00596093
0.00603336
0.00610159
0.00616561
0.00622398
0.00626936
0.01
0.01
0.01
0.01
0.01
0.01
0.01
0.01
0.01
0.01
0.00999999
0.00999998
0.00999993
0.00999979
0.00999934
0.00999805
0.00999445
0.00998485
0.0099605
0.00990227
0.00977188
0.00950054
0.00898017
0.00806695
0.00660517
0.00445108
0.00113482
0.000701802
8.65521e-07
2.07408e-10
7.49572e-14
2.44298e-17
6.65578e-21
1.54444e-24
3.14795e-28
5.83478e-32
1.21281e-35
1.15578e-36
3.29468e-36
2.36945e-33
3.65336e-30
5.34577e-27
7.94295e-24
1.35218e-20
2.72102e-17
5.55415e-14
9.405e-11
1.08549e-07
4.98062e-05
6.91973e-05
0.00156001
0.00226804
0.002835
0.00328988
0.0036623
0.00397403
0.00424008
0.00447083
0.0046736
0.00485372
0.00501519
0.00516104
0.00529364
0.0054149
0.00552633
0.00562921
0.00572459
0.00581335
0.00589625
0.00597395
0.00604699
0.00611576
0.00618029
0.00623912
0.00628486
0.01
0.01
0.01
0.01
0.01
0.01
0.01
0.01
0.01
0.01
0.00999999
0.00999998
0.00999993
0.00999979
0.00999937
0.00999813
0.00999469
0.00998551
0.0099623
0.0099069
0.00978311
0.00952623
0.00903575
0.00818292
0.00684921
0.00501157
0.00291305
0.000449861
5.20534e-05
4.42139e-09
3.71153e-13
5.15713e-17
1.15646e-20
2.75642e-24
6.02743e-28
1.72368e-31
1.01382e-32
5.57254e-33
9.87393e-33
5.96203e-32
4.74808e-30
6.91518e-27
1.22331e-23
2.42924e-20
4.981e-17
9.1958e-14
1.3407e-10
1.33512e-07
5.66875e-05
7.61668e-05
0.00167488
0.00244777
0.00304931
0.00352473
0.00391029
0.00423041
0.0045014
0.00473442
0.0049374
0.00511611
0.0052749
0.00541707
0.00554526
0.00566153
0.00576758
0.00586481
0.00595437
0.00603725
0.00611428
0.00618621
0.00625363
0.00631703
0.00637649
0.00643076
0.00647304
0.01
0.01
0.01
0.01
0.01
0.01
0.01
0.01
0.01
0.01
0.00999999
0.00999998
0.00999994
0.00999981
0.00999942
0.00999828
0.00999513
0.00998676
0.00996564
0.00991535
0.00980325
0.00957121
0.0091295
0.00836468
0.00717571
0.00554519
0.00362981
0.000178252
0.000116678
4.85728e-08
1.01588e-11
1.55216e-15
2.00359e-19
2.53683e-23
6.00433e-27
2.80022e-28
5.72383e-29
2.98423e-29
5.50251e-29
2.92321e-28
2.29327e-27
9.44697e-26
3.75416e-23
7.12999e-20
1.33109e-16
2.20449e-13
3.34539e-10
6.23741e-07
0.000299555
0.0004629
0.00192626
0.00279559
0.00343095
0.00392556
0.00432422
0.00465325
0.00492969
0.00516524
0.00536829
0.00554502
0.00570012
0.00583723
0.00595925
0.00606848
0.00616683
0.00625586
0.00633688
0.00641102
0.00647925
0.00654239
0.00660117
0.00665618
0.00670765
0.00675464
0.00679132
0.01
0.01
0.01
0.01
0.01
0.01
0.01
0.01
0.01
0.01
0.00999999
0.00999998
0.00999995
0.00999983
0.00999949
0.00999849
0.00999573
0.00998841
0.00997
0.00992628
0.00982902
0.00962798
0.00924543
0.00858159
0.00753946
0.00605812
0.00407926
0.00040157
0.000302552
2.46111e-07
7.71291e-11
2.00294e-14
4.49026e-18
1.69693e-21
1.5475e-23
1.34888e-24
3.22439e-25
1.70697e-25
3.07706e-25
1.37438e-24
1.04062e-23
4.53739e-22
1.33212e-20
3.65798e-18
5.64176e-15
1.8596e-11
5.31194e-08
9.08585e-05
0.00013218
0.00165263
0.0025752
0.00333514
0.0039414
0.00442946
0.00482841
0.00515925
0.00543705
0.00567277
0.00587459
0.00604871
0.00619994
0.00633208
0.00644817
0.00655069
0.00664166
0.00672281
0.00679556
0.00686114
0.00692064
0.00697499
0.00702501
0.00707141
0.00711456
0.00715386
0.00718459
0.01
0.01
0.01
0.01
0.01
0.01
0.01
0.01
0.01
0.01
0.01
0.00999999
0.00999995
0.00999986
0.00999956
0.00999872