/*--------------------------------*- C++ -*----------------------------------*\
  =========                 |
  \\      /  F ield         | OpenFOAM: The Open Source CFD Toolbox
   \\    /   O peration     | Website:  https://openfoam.org
    \\  /    A nd           | Version:  7
     \\/     M anipulation  |
\*---------------------------------------------------------------------------*/
FoamFile
{
    version     2.0;
    format      ascii;
    class       volScalarField;
    location    "25";
    object      p;
}
// * * * * * * * * * * * * * * * * * * * * * * * * * * * * * * * * * * * * * //

dimensions      [0 2 -2 0 0 0 0];

internalField   nonuniform List<scalar> 
5625
(
0.00118435
0.000741208
0.000528525
0.000441931
0.000396405
0.000369074
0.000351877
0.00034029
0.000331905
0.000325473
0.000320284
0.0003159
0.000312029
0.00030847
0.000305077
0.000301739
0.000298371
0.000294904
0.000291283
0.00028746
0.000283398
0.000279063
0.000274428
0.000269472
0.000264177
0.000258533
0.000252531
0.000246171
0.000239456
0.000232397
0.000225009
0.000217313
0.000209336
0.000201111
0.000192675
0.000184069
0.00017534
0.000166533
0.000157699
0.000148887
0.000140145
0.000131519
0.000123054
0.000114789
0.00010676
9.89975e-05
9.15273e-05
8.43697e-05
7.75395e-05
7.10467e-05
6.48963e-05
5.90891e-05
5.36215e-05
4.84867e-05
4.36745e-05
3.91723e-05
3.4965e-05
3.10359e-05
2.73671e-05
2.39396e-05
2.07339e-05
1.77305e-05
1.49101e-05
1.22542e-05
9.74561e-06
7.369e-06
5.11205e-06
2.96684e-06
9.31807e-07
-9.83095e-07
-2.74024e-06
-4.26004e-06
-5.49697e-06
-6.31048e-06
-4.29618e-06
0.00083476
0.000657006
0.000537555
0.000467563
0.000421265
0.000389725
0.000368087
0.000352745
0.000341406
0.000332688
0.000325718
0.000319925
0.000314921
0.000310437
0.000306278
0.000302299
0.00029839
0.000294465
0.000290454
0.000286302
0.000281965
0.000277404
0.000272589
0.000267497
0.000262108
0.000256411
0.000250396
0.000244063
0.000237414
0.000230458
0.000223208
0.000215684
0.00020791
0.000199916
0.000191734
0.000183401
0.00017496
0.00016645
0.000157917
0.000149404
0.000140954
0.00013261
0.00012441
0.000116392
0.000108587
0.000101024
9.37263e-05
8.6714e-05
8.00017e-05
7.35992e-05
6.75128e-05
6.17442e-05
5.62918e-05
5.11504e-05
4.63122e-05
4.17667e-05
3.75015e-05
3.35022e-05
2.97538e-05
2.62397e-05
2.29434e-05
1.98481e-05
1.69375e-05
1.41962e-05
1.16104e-05
9.16867e-06
6.8631e-06
4.6909e-06
2.65632e-06
7.74243e-07
-9.11914e-07
-2.31475e-06
-3.4531e-06
-4.54354e-06
-3.58403e-06
0.000625987
0.000569927
0.00051046
0.000461974
0.000424376
0.000396045
0.00037492
0.000358992
0.000346727
0.000337043
0.000329176
0.000322587
0.000316892
0.000311811
0.000307136
0.000302713
0.00029842
0.000294164
0.000289869
0.000285476
0.000280935
0.000276206
0.000271258
0.000266065
0.000260607
0.000254871
0.000248848
0.000242535
0.000235935
0.000229055
0.000221907
0.000214509
0.000206884
0.000199057
0.000191061
0.000182928
0.000174695
0.000166401
0.000158087
0.000149793
0.000141558
0.000133421
0.000125418
0.000117582
0.000109945
0.000102533
9.53677e-05
8.84684e-05
8.18492e-05
7.55204e-05
6.94884e-05
6.37559e-05
5.83221e-05
5.31834e-05
4.83331e-05
4.37627e-05
3.94612e-05
3.54164e-05
3.16147e-05
2.80419e-05
2.46832e-05
2.15239e-05
1.85497e-05
1.57474e-05
1.31051e-05
1.06136e-05
8.26672e-06
6.06334e-06
4.00779e-06
2.11164e-06
4.1096e-07
-1.01675e-06
-2.25513e-06
-3.76718e-06
-3.55885e-06
0.000517542
0.000503576
0.000474074
0.00044287
0.000415612
0.000393106
0.000374937
0.000360353
0.000348575
0.000338933
0.000330888
0.000324023
0.000318016
0.000312622
0.000307649
0.00030295
0.000298408
0.000293929
0.000289438
0.000284875
0.00028019
0.000275342
0.000270298
0.000265032
0.000259525
0.000253761
0.000247733
0.000241437
0.000234874
0.00022805
0.000220977
0.000213672
0.000206155
0.00019845
0.000190587
0.000182598
0.000174516
0.000166379
0.000158224
0.000150088
0.000142009
0.000134024
0.000126166
0.000118467
0.000110957
0.000103659
9.65966e-05
8.97864e-05
8.32427e-05
7.69755e-05
7.09915e-05
6.52935e-05
5.98817e-05
5.47529e-05
4.99017e-05
4.53203e-05
4.09993e-05
3.69275e-05
3.30927e-05
2.94819e-05
2.60819e-05
2.28792e-05
1.98609e-05
1.70148e-05
1.43304e-05
1.17988e-05
9.4142e-06
7.17446e-06
5.08112e-06
3.13905e-06
1.37372e-06
-1.51095e-07
-1.56743e-06
-3.4755e-06
-3.72111e-06
0.000453612
0.000454904
0.00044137
0.000422316
0.000403492
0.000386463
0.000371648
0.000359026
0.000348335
0.000339244
0.000331428
0.000324603
0.000318529
0.00031301
0.000307886
0.000303026
0.000298325
0.000293696
0.000289068
0.000284383
0.000279591
0.000274654
0.000269539
0.00026422
0.000258677
0.000252895
0.000246865
0.000240584
0.000234051
0.000227273
0.000220261
0.000213029
0.000205597
0.000197988
0.000190229
0.000182352
0.000174388
0.000166372
0.000158341
0.000150329
0.000142374
0.000134509
0.000126767
0.000119179
0.000111772
0.00010457
9.75932e-05
9.08596e-05
8.43822e-05
7.8171e-05
7.22322e-05
6.65693e-05
6.11823e-05
5.60689e-05
5.12241e-05
4.66409e-05
4.23107e-05
3.82233e-05
3.43674e-05
3.07311e-05
2.73021e-05
2.40679e-05
2.10165e-05
1.81364e-05
1.54173e-05
1.28506e-05
1.04297e-05
8.15076e-06
6.01162e-06
4.01083e-06
2.1648e-06
5.26893e-07
-1.06864e-06
-3.30649e-06
-3.86985e-06
0.000412687
0.000419248
0.000414226
0.000403155
0.000390584
0.000378103
0.000366435
0.000355908
0.000346566
0.000338313
0.000330992
0.000324437
0.000318488
0.000313002
0.000307854
0.000302938
0.000298164
0.000293455
0.000288747
0.000283987
0.000279129
0.000274135
0.000268973
0.00026362
0.000258054
0.000252262
0.000246235
0.000239967
0.00023346
0.000226718
0.000219751
0.000212574
0.000205204
0.000197665
0.000189982
0.000182186
0.000174306
0.000166378
0.000158436
0.000150516
0.000142651
0.000134875
0.000127221
0.000119717
0.00011239
0.000105264
9.83577e-05
9.16879e-05
8.52676e-05
7.91062e-05
7.32099e-05
6.75818e-05
6.22223e-05
5.7129e-05
5.22973e-05
4.77207e-05
4.33911e-05
3.92988e-05
3.54334e-05
3.17834e-05
2.83373e-05
2.5083e-05
2.20092e-05
1.91047e-05
1.63592e-05
1.37635e-05
1.131e-05
8.99285e-06
6.80655e-06
4.74413e-06
2.81532e-06
1.06665e-06
-6.89601e-07
-3.19205e-06
-3.98804e-06
0.000385103
0.000392948
0.000392255
0.000386205
0.000378075
0.00036917
0.000360223
0.000351682
0.000343746
0.000336461
0.000329791
0.000323661
0.000317978
0.00031265
0.000307586
0.000302705
0.000297934
0.000293211
0.000288478
0.000283689
0.000278801
0.000273781
0.000268599
0.00026323
0.000257657
0.000251864
0.000245843
0.000239588
0.000233101
0.000226385
0.000219449
0.000212308
0.000204978
0.000197482
0.000189846
0.000182099
0.00017427
0.000166395
0.000158508
0.000150643
0.000142835
0.000135118
0.000127522
0.000120076
0.000112807
0.000105736
9.88833e-05
9.22647e-05
8.58919e-05
7.97743e-05
7.39173e-05
6.83239e-05
6.29941e-05
5.79255e-05
5.31134e-05
4.85517e-05
4.42322e-05
4.01458e-05
3.6282e-05
3.26301e-05
2.91786e-05
2.5916e-05
2.28308e-05
1.99121e-05
1.71491e-05
1.45321e-05
1.20523e-05
9.70172e-06
7.47201e-06
5.35203e-06
3.34673e-06
1.49864e-06
-3.93335e-07
-3.10093e-06
-4.06977e-06
0.000365491
0.000373203
0.000374657
0.000371709
0.00036665
0.000360446
0.000353725
0.000346931
0.000340322
0.00033402
0.000328065
0.000322443
0.000317117
0.000312034
0.000307134
0.00030236
0.000297658
0.000292974
0.000288265
0.000283487
0.000278606
0.000273588
0.000268409
0.000263044
0.000257476
0.000251692
0.000245681
0.00023944
0.000232967
0.000226267
0.000219349
0.000212225
0.000204914
0.000197436
0.000189818
0.000182087
0.000174277
0.000166421
0.000158553
0.00015071
0.000142927
0.000135236
0.00012767
0.000120256
0.000113022
0.000105988
9.91734e-05
9.25934e-05
8.62596e-05
8.01799e-05
7.43596e-05
6.88008e-05
6.35031e-05
5.84637e-05
5.3678e-05
4.91391e-05
4.48391e-05
4.07686e-05
3.69177e-05
3.32751e-05
2.98299e-05
2.65703e-05
2.34849e-05
2.05624e-05
1.77918e-05
1.51626e-05
1.26646e-05
1.02883e-05
8.0231e-06
5.85463e-06
3.78481e-06
1.8538e-06
-1.46616e-07
-3.00627e-06
-4.10662e-06
0.000350899
0.000358072
0.000360571
0.000359532
0.000356567
0.000352356
0.000347391
0.000342066
0.000336639
0.000331266
0.000326023
0.000320943
0.000316022
0.000311238
0.000306559
0.000301947
0.000297362
0.000292765
0.000288119
0.000283389
0.000278545
0.000273557
0.000268402
0.000263058
0.00025751
0.000251742
0.000245747
0.000239518
0.000233056
0.000226363
0.000219449
0.000212326
0.00020501
0.000197525
0.000189895
0.000182151
0.000174326
0.000166453
0.000158571
0.000150715
0.000142922
0.000135227
0.000127662
0.000120256
0.000113034
0.000106019
9.92274e-05
9.26749e-05
8.63716e-05
8.03251e-05
7.45392e-05
6.90156e-05
6.37529e-05
5.87478e-05
5.39948e-05
4.9487e-05
4.52157e-05
4.11717e-05
3.73443e-05
3.37226e-05
3.0295e-05
2.705e-05
2.39757e-05
2.10605e-05
1.82929e-05
1.56616e-05
1.31555e-05
1.07636e-05
8.47349e-06
6.26895e-06
4.14972e-06
2.15459e-06
7.27057e-08
-2.89142e-06
-4.09347e-06
0.0003397
0.000346279
0.00034926
0.000349393
0.000347846
0.000345086
0.000341481
0.000337355
0.000332945
0.000328408
0.000323841
0.000319298
0.000314799
0.000310345
0.000305922
0.00030151
0.000297081
0.000292606
0.000288058
0.000283407
0.000278626
0.000273692
0.000268582
0.000263276
0.000257759
0.000252017
0.000246041
0.000239826
0.00023337
0.000226676
0.000219753
0.000212612
0.000205271
0.000197752
0.000190082
0.000182292
0.000174416
0.000166491
0.000158557
0.000150653
0.000142817
0.000135086
0.000127493
0.000120069
0.000112838
0.000105823
9.90411e-05
9.25053e-05
8.62256e-05
8.02078e-05
7.44553e-05
6.89681e-05
6.3744e-05
5.87785e-05
5.40656e-05
4.95972e-05
4.53645e-05
4.13573e-05
3.75647e-05
3.39753e-05
3.05772e-05
2.73585e-05
2.43071e-05
2.14108e-05
1.86576e-05
1.60355e-05
1.35326e-05
1.11368e-05
8.83449e-06
6.60817e-06
4.4563e-06
2.41645e-06
2.7885e-07
-2.74655e-06
-4.02745e-06
0.000330949
0.000336979
0.000340148
0.000340997
0.000340408
0.000338696
0.000336129
0.000332965
0.000329409
0.000325605
0.000321655
0.000317622
0.00031354
0.000309427
0.000305281
0.000301093
0.000296847
0.000292523
0.0002881
0.000283553
0.000278861
0.000274002
0.000268955
0.000263703
0.00025823
0.000252523
0.000246571
0.00024037
0.000233917
0.000227214
0.000220268
0.000213093
0.000205704
0.000198125
0.000190383
0.000182512
0.000174549
0.000166534
0.00015851
0.000150519
0.000142604
0.000134804
0.000127154
0.000119685
0.000112425
0.000105393
9.86064e-05
9.2078e-05
8.58155e-05
7.98238e-05
7.41043e-05
6.86559e-05
6.34747e-05
5.85554e-05
5.38903e-05
4.94708e-05
4.52867e-05
4.13274e-05
3.75811e-05
3.40359e-05
3.06795e-05
2.74994e-05
2.4483e-05
2.16178e-05
1.88911e-05
1.62904e-05
1.3803e-05
1.14162e-05
9.11564e-06
6.88298e-06
4.71585e-06
2.65057e-06
4.81483e-07
-2.56534e-06
-3.90687e-06
0.000324059
0.000329604
0.000332804
0.000334083
0.000334137
0.000333177
0.000331395
0.000328994
0.000326142
0.000322968
0.000319567
0.000316005
0.000312324
0.000308548
0.000304687
0.000300738
0.000296694
0.000292543
0.000288266
0.000283846
0.000279263
0.000274498
0.000269533
0.00026435
0.000258932
0.000253268
0.000247347
0.000241161
0.000234708
0.000227988
0.000221009
0.00021378
0.000206321
0.000198653
0.000190808
0.000182819
0.000174729
0.000166582
0.000158425
0.000150306
0.000142273
0.000134369
0.000126631
0.000119093
0.00011178
0.000104715
9.79122e-05
9.13826e-05
8.51328e-05
7.91655e-05
7.34804e-05
6.80744e-05
6.29422e-05
5.80763e-05
5.34682e-05
4.91074e-05
4.49831e-05
4.10832e-05
3.73955e-05
3.3907e-05
3.0605e-05
2.74761e-05
2.45075e-05
2.1686e-05
1.89985e-05
1.64321e-05
1.39734e-05
1.16094e-05
9.32509e-06
7.10199e-06
4.93712e-06
2.86514e-06
6.87365e-07
-2.34373e-06
-3.73086e-06
0.000318646
0.00032376
0.000326903
0.000328429
0.000328909
0.000328485
0.000327294
0.00032549
0.000323213
0.000320572
0.000317652
0.000314518
0.000311212
0.000307762
0.000304184
0.000300482
0.000296653
0.000292689
0.000288577
0.000284302
0.000279847
0.000275195
0.000270327
0.000265227
0.000259879
0.000254268
0.000248383
0.000242216
0.00023576
0.000229017
0.000221991
0.000214692
0.000207138
0.000199353
0.000191369
0.000183223
0.000174961
0.000166635
0.000158298
0.000150006
0.000141813
0.000133766
0.000125908
0.000118273
0.000110888
0.000103773
9.6943e-05
9.04058e-05
8.41656e-05
7.82231e-05
7.25754e-05
6.72173e-05
6.21412e-05
5.7338e-05
5.27968e-05
4.85063e-05
4.44536e-05
4.06259e-05
3.70095e-05
3.3591e-05
3.03564e-05
2.72922e-05
2.43845e-05
2.16199e-05
1.8985e-05
1.64661e-05
1.40499e-05
1.17227e-05
9.46961e-06
7.27215e-06
5.12679e-06
3.06614e-06
9.01103e-07
-2.07931e-06
-3.49927e-06
0.000314443
0.000319167
0.0003222
0.000323852
0.000324607
0.000324561
0.000323808
0.000322471
0.000320658
0.000318464
0.000315961
0.000313209
0.000310249
0.00030711
0.00030381
0.000300356
0.000296749
0.000292984
0.000289051
0.000284937
0.000280627
0.000276105
0.000271352
0.000266351
0.000261085
0.000255538
0.000249698
0.000243553
0.000237095
0.000230324
0.00022324
0.000215853
0.000208181
0.000200246
0.000192084
0.000183736
0.000175253
0.000166695
0.000158124
0.000149607
0.000141205
0.000132975
0.000124962
0.000117203
0.000109725
0.000102547
9.56798e-05
8.91302e-05
8.28992e-05
7.6984e-05
7.13791e-05
6.60762e-05
6.10655e-05
5.63354e-05
5.18733e-05
4.76654e-05
4.36978e-05
3.99557e-05
3.64247e-05
3.30899e-05
2.99369e-05
2.69509e-05
2.4118e-05
2.14241e-05
1.88552e-05
1.63977e-05
1.40378e-05
1.17619e-05
9.55498e-06
7.39901e-06
5.29002e-06
3.25791e-06
1.12578e-06
-1.77096e-06
-3.21268e-06
0.000311258
0.000315617
0.000318506
0.000320202
0.000321124
0.000321338
0.000320909
0.000319931
0.000318493
0.00031667
0.000314527
0.000312114
0.00030947
0.000306624
0.000303592
0.000300385
0.000297004
0.000293448
0.000289706
0.000285769
0.00028162
0.000277244
0.000272622
0.000267737
0.000262568
0.000257099
0.000251313
0.000245197
0.00023874
0.000231936
0.000224785
0.000217294
0.000209478
0.000201361
0.000192979
0.000184378
0.000175617
0.000166764
0.000157896
0.000149092
0.000140428
0.000131969
0.000123764
0.000115853
0.000108263
0.000101008
9.40986e-05
8.75352e-05
8.13154e-05
7.5433e-05
6.98786e-05
6.4641e-05
5.97072e-05
5.50631e-05
5.06934e-05
4.65826e-05
4.27146e-05
3.90732e-05
3.56423e-05
3.24062e-05
2.93492e-05
2.64561e-05
2.37121e-05
2.11028e-05
1.8614e-05
1.62318e-05
1.39423e-05
1.1732e-05
9.58606e-06
7.48713e-06
5.43073e-06
3.44355e-06
1.36329e-06
-1.41862e-06
-2.87229e-06
0.000308942
0.000312952
0.000315674
0.000317355
0.000318367
0.000318752
0.000318557
0.000317855
0.000316716
0.000315202
0.000313366
0.000311253
0.000308898
0.000306325
0.000303552
0.000300589
0.000297438
0.000294097
0.000290558
0.00028681
0.000282839
0.000278627
0.000274155
0.000269403
0.000264349
0.000258973
0.000253255
0.000247178
0.000240726
0.00023389
0.000226665
0.000219054
0.000211069
0.000202734
0.000194086
0.000185176
0.000176068
0.000166846
0.000157604
0.000148442
0.000139453
0.000130712
0.000122277
0.000114187
0.000106467
9.91268e-05
9.21712e-05
8.55959e-05
7.93934e-05
7.35523e-05
6.80596e-05
6.29e-05
5.80573e-05
5.35141e-05
4.92528e-05
4.52551e-05
4.1503e-05
3.79784e-05
3.46638e-05
3.1542e-05
2.85965e-05
2.58113e-05
2.3171e-05
2.06607e-05
1.82661e-05
1.59732e-05
1.37681e-05
1.16375e-05
9.5671e-06
7.54022e-06
5.55193e-06
3.62516e-06
1.61456e-06
-1.02317e-06
-2.47997e-06
0.000307377
0.000311048
0.000313582
0.000315207
0.00031625
0.000316741
0.000316711
0.000316217
0.000315316
0.000314057
0.000312485
0.000310637
0.000308544
0.000306228
0.000303704
0.000300981
0.000298062
0.000294943
0.000291618
0.000288075
0.000284298
0.000280269
0.000275967
0.000271368
0.00026645
0.000261186
0.000255553
0.000249529
0.000243092
0.000236227
0.000228924
0.000221181
0.000213003
0.000204413
0.000195448
0.000186163
0.00017663
0.000166946
0.000157237
0.000147628
0.000138237
0.000129158
0.000120452
0.000112158
0.000104293
9.68635e-05
8.9864e-05
8.3284e-05
7.71088e-05
7.13222e-05
6.59058e-05
6.08404e-05
5.61057e-05
5.16814e-05
4.75464e-05
4.36801e-05
4.00619e-05
3.66719e-05
3.34908e-05
3.05002e-05
2.76824e-05
2.50207e-05
2.24991e-05
2.01025e-05
1.78163e-05
1.56265e-05
1.35197e-05
1.14828e-05
9.50182e-06
7.56137e-06
5.65592e-06
3.80411e-06
1.87978e-06
-5.86281e-07
-2.03822e-06
0.000306468
0.0003098
0.000312133
0.000313669
0.000314699
0.000315244
0.000315325
0.000314987
0.000314274
0.000313226
0.000311881
0.000310269
0.000308415
0.00030634
0.000304056
0.00030157
0.000298885
0.000295996
0.000292896
0.000289572
0.000286008
0.000282182
0.000278072
0.000273651
0.000268892
0.000263765
0.00025824
0.000252288
0.000245882
0.000238999
0.00023162
0.000223735
0.000215343
0.000206459
0.000197124
0.000187391
0.000177335
0.000167075
0.000156776
0.000146609
0.000136727
0.000127245
0.000118227
0.000109707
0.000101691
9.41732e-05
8.71392e-05
8.05673e-05
7.44356e-05
6.87207e-05
6.33996e-05
5.8448e-05
5.3842e-05
4.95571e-05
4.55692e-05
4.18547e-05
3.83905e-05
3.51544e-05
3.21255e-05
2.92839e-05
2.66108e-05
2.40887e-05
2.17013e-05
1.9433e-05
1.72695e-05
1.51967e-05
1.32017e-05
1.12717e-05
9.39362e-06
7.5532e-06
5.7444e-06
3.9811e-06
2.15843e-06
-1.10465e-07
-1.55025e-06
0.000306129
0.000309122
0.000311239
0.000312661
0.000313646
0.000314206
0.000314356
0.000314131
0.000313566
0.000312694
0.000311544
0.000310142
0.000308509
0.000306661
0.000304609
0.000302359
0.00029991
0.00029726
0.000294397
0.000291309
0.000287977
0.000284378
0.000280486
0.000276271
0.000271701
0.000266739
0.000261351
0.000255498
0.000249146
0.000242262
0.000234818
0.000226791
0.000218168
0.000208953
0.00019919
0.00018893
0.000178234
0.000167245
0.000156199
0.000145327
0.000134843
0.000124888
0.000115522
0.000106761
9.85963e-05
9.10044e-05
8.39538e-05
7.74113e-05
7.13449e-05
6.57251e-05
6.05225e-05
5.57087e-05
5.12551e-05
4.71336e-05
4.33164e-05
3.97767e-05
3.64885e-05
3.34276e-05
3.05709e-05
2.78971e-05
2.53865e-05
2.30208e-05
2.07832e-05
1.86581e-05
1.66312e-05
1.46889e-05
1.28186e-05
1.10083e-05
9.24573e-06
7.51805e-06
5.81869e-06
4.15637e-06
2.44946e-06
4.01066e-07
-1.01987e-06
0.000306285
0.000308937
0.000310826
0.000312116
0.000313028
0.000313573
0.000313759
0.000313614
0.000313165
0.000312439
0.000311459
0.000310246
0.000308817
0.000307186
0.00030536
0.000303345
0.000301138
0.000298734
0.000296123
0.000293288
0.000290211
0.000286865
0.000283221
0.000279245
0.000274898
0.000270139
0.000264924
0.000259206
0.000252941
0.000246084
0.000238596
0.000230439
0.000221575
0.000211993
0.000201747
0.000190882
0.0001794
0.000167478
0.000155468
0.000143698
0.000132474
0.000121973
0.000112233
0.000103234
9.49379e-05
8.72984e-05
8.02626e-05
7.37795e-05
6.7808e-05
6.23113e-05
5.72557e-05
5.26076e-05
4.83344e-05
4.44036e-05
4.07838e-05
3.74444e-05
3.43568e-05
3.1494e-05
2.8831e-05
2.63451e-05
2.40154e-05
2.18231e-05
1.97511e-05
1.77839e-05
1.59073e-05
1.41085e-05
1.23753e-05
1.06966e-05
9.0613e-06
7.45803e-06
5.87976e-06
4.32971e-06
2.75128e-06
9.4435e-07
-4.51653e-07
0.000306868
0.000309174
0.000310827
0.000311968
0.000312789
0.000313294
0.000313491
0.000313399
0.000313041
0.000312437
0.000311606
0.000310565
0.000309327
0.000307904
0.000306301
0.000304521
0.000302561
0.000300415
0.00029807
0.00029551
0.000292712
0.000289649
0.000286288
0.000282588
0.000278507
0.000273995
0.000268998
0.000263461
0.000257327
0.000250537
0.000243043
0.000234786
0.000225687
0.0002157
0.000204925
0.000193396
0.000180952
0.000167803
0.000154537
0.000141594
0.000129455
0.000118344
0.000108228
9.90187e-05
9.0632e-05
8.29933e-05
7.60186e-05
6.96365e-05
6.37958e-05
5.84567e-05
5.35806e-05
4.91307e-05
4.50695e-05
4.13606e-05
3.7968e-05
3.48577e-05
3.19974e-05
2.93576e-05
2.69114e-05
2.46343e-05
2.25046e-05
2.05031e-05
1.86125e-05
1.68176e-05
1.51047e-05
1.34616e-05
1.18771e-05
1.0341e-05
8.84358e-06
7.37519e-06
5.9284e-06
4.50062e-06
3.06188e-06
1.51477e-06
1.49256e-07
0.000307813
0.000309769
0.000311179
0.00031216
0.000312873
0.000313322
0.000313509
0.00031345
0.000313162
0.000312661
0.000311962
0.000311079
0.000310023
0.000308801
0.000307418
0.000305876
0.00030417
0.000302293
0.000300232
0.000297968
0.000295478
0.000292732
0.000289691
0.000286313
0.000282547
0.000278334
0.000273613
0.000268315
0.000262369
0.000255703
0.000248259
0.000239964
0.000230658
0.000220222
0.000208904
0.000196757
0.000183146
0.000168271
0.000153309
0.000138765
0.0001255
0.000113767
0.000103334
9.39914e-05
8.55885e-05
7.80261e-05
7.11801e-05
6.49501e-05
5.92829e-05
5.41391e-05
4.94798e-05
4.52641e-05
4.1451e-05
3.79989e-05
3.48674e-05
3.20177e-05
2.94143e-05
2.70246e-05
2.48194e-05
2.27731e-05
2.08631e-05
1.90699e-05
1.73763e-05
1.57676e-05
1.4231e-05
1.2755e-05
1.13298e-05
9.94617e-06
8.59598e-06
7.27161e-06
5.96524e-06
4.66834e-06
3.37882e-06
2.10701e-06
7.76913e-07
0.000309058
0.000310662
0.000311823
0.000312636
0.000313231
0.000313609
0.00031377
0.000313728
0.000313494
0.000313082
0.000312503
0.000311767
0.000310883
0.000309858
0.000308694
0.000307393
0.000305949
0.000304354
0.000302595
0.000300652
0.000298501
0.000296108
0.000293433
0.000290427
0.000287034
0.000283185
0.000278807
0.00027382
0.000268135
0.000261663
0.000254353
0.000246143
0.000236714
0.000225733
0.00021387
0.000201474
0.000186549
0.000168979
0.000151589
0.000134702
0.000120129
0.000107895
9.73285e-05
8.80157e-05
7.97142e-05
7.23434e-05
6.5716e-05
5.9698e-05
5.42473e-05
4.93394e-05
4.49362e-05
4.09951e-05
3.74702e-05
3.43145e-05
3.14817e-05
2.89281e-05
2.66138e-05
2.45031e-05
2.2565e-05
2.07722e-05
1.91018e-05
1.75342e-05
1.60528e-05
1.46436e-05
1.32949e-05
1.19965e-05
1.07398e-05
9.51717e-06
8.32222e-06
7.14946e-06
5.9909e-06
4.83191e-06
3.6994e-06
2.7152e-06
1.42487e-06
0.000310543
0.000311794
0.000312704
0.000313343
0.000313812
0.000314109
0.000314234
0.000314196
0.000314005
0.000313669
0.000313199
0.000312601
0.000311884
0.000311052
0.000310108
0.000309051
0.000307877
0.000306578
0.00030514
0.000303545
0.000301764
0.000299766
0.000297506
0.000294931
0.000291977
0.000288567
0.000284614
0.000280023
0.000274685
0.000268486
0.000261423
0.000253547
0.000244205
0.00023235
0.000219624
0.000207759
0.000191276
0.000169966
0.000149385
0.000129337
0.00011312
0.000100485
9.00558e-05
8.098e-05
7.29175e-05
6.59042e-05
5.96202e-05
5.38716e-05
4.86745e-05
4.40392e-05
3.99335e-05
3.63107e-05
3.31194e-05
3.03049e-05
2.78134e-05
2.55951e-05
2.36052e-05
2.18049e-05
2.01608e-05
1.86451e-05
1.72342e-05
1.59093e-05
1.46544e-05
1.3457e-05
1.23066e-05
1.11947e-05
1.01143e-05
9.05976e-06
8.02634e-06
7.01113e-06
6.006e-06
4.99027e-06
4.02054e-06
3.33283e-06
2.0859e-06
0.000312209
0.00031311
0.000313768
0.000314231
0.000314569
0.000314778
0.00031486
0.000314817
0.000314659
0.000314391
0.00031402
0.000313554
0.000312999
0.000312357
0.000311633
0.000310825
0.00030993
0.00030894
0.000307844
0.000306621
0.000305247
0.000303687
0.000301896
0.000299818
0.000297381
0.000294497
0.000291064
0.000286971
0.000282075
0.000276204
0.000269466
0.000262286
0.000253368
0.000239637
0.000226024
0.000216025
0.000195275
0.000170762
0.000147812
0.000124185
0.000103925
9.15151e-05
8.16301e-05
7.28737e-05
6.50922e-05
5.86928e-05
5.29275e-05
4.7489e-05
4.25557e-05
3.82213e-05
3.44536e-05
3.11972e-05
2.83912e-05
2.59694e-05
2.38678e-05
2.20287e-05
2.0402e-05
1.89453e-05
1.76237e-05
1.64085e-05
1.52769e-05
1.42107e-05
1.31957e-05
1.22208e-05
1.12775e-05
1.03595e-05
9.46167e-06
8.58025e-06
7.7129e-06
6.85923e-06
6.01127e-06
5.14227e-06
4.33903e-06
3.95296e-06
2.75238e-06
0.000314
0.000314556
0.000314965
0.000315252
0.000315456
0.000315575
0.000315607
0.000315554
0.000315421
0.000315214
0.000314937
0.000314596
0.000314197
0.000313745
0.00031324
0.000312685
0.000312077
0.000311409
0.000310672
0.000309849
0.000308917
0.000307841
0.000306578
0.000305069
0.000303238
0.000300984
0.000298189
0.000294729
0.000290407
0.000284874
0.000278378
0.000272368
0.000264373
0.000245534
0.000236255
0.000238182
0.000212759
0.000167287
0.000147229
0.000107282
8.22823e-05
7.91599e-05
7.13079e-05
6.38905e-05
5.62778e-05
5.08471e-05
4.57854e-05
4.05982e-05
3.58801e-05
3.18585e-05
2.84711e-05
2.5637e-05
2.32779e-05
2.13099e-05
1.96543e-05
1.82438e-05
1.70223e-05
1.59447e-05
1.49743e-05
1.40832e-05
1.32495e-05
1.24569e-05
1.16933e-05
1.095e-05
1.02209e-05
9.50207e-06
8.79082e-06
8.08573e-06
7.38684e-06
6.6967e-06
6.00753e-06
5.2868e-06
4.65144e-06
4.56818e-06
3.41603e-06
0.000315859
0.00031608
0.000316245
0.000316359
0.000316431
0.000316458
0.000316437
0.000316369
0.000316257
0.000316104
0.000315915
0.000315695
0.000315449
0.000315182
0.000314897
0.000314597
0.000314281
0.000313947
0.000313587
0.000313188
0.000312731
0.000312186
0.000311511
0.000310651
0.000309525
0.000308023
0.000306008
0.000303362
0.000299819
0.000294563
0.000288224
0.000286214
0.000284345
0.000255075
0.000234755
0.000287253
0.00034086
0.000133188
0.000147832
1.01443e-05
4.53161e-05
5.84416e-05
5.44116e-05
5.51978e-05
4.67442e-05
4.27937e-05
3.8499e-05
3.32369e-05
2.85796e-05
2.48867e-05
2.19413e-05
1.96039e-05
1.77713e-05
1.63319e-05
1.51882e-05
1.42618e-05
1.34915e-05
1.28294e-05
1.22394e-05
1.16947e-05
1.11761e-05
1.06698e-05
1.0167e-05
9.66188e-06
9.15154e-06
8.63477e-06
8.11188e-06
7.58392e-06
7.05372e-06
6.52678e-06
5.99584e-06
5.42272e-06
4.95427e-06
5.17081e-06
4.06835e-06
0.000317733
0.000317631
0.000317562
0.000317507
0.000317451
0.000317387
0.000317313
0.000317228
0.000317133
0.00031703
0.000316924
0.000316819
0.000316721
0.000316635
0.000316567
0.000316522
0.000316502
0.000316509
0.000316539
0.000316585
0.000316635
0.000316664
0.000316638
0.000316507
0.000316194
0.000315575
0.00031447
0.000312776
0.000310051
0.000304104
0.000296218
0.000306321
0.000330121
0.000335973
0.000103238
0.00021484
0.000253372
0.00013613
0.000193509
8.23424e-05
0.000164106
1.30239e-05
4.27592e-05
4.65783e-05
3.29171e-05
3.37544e-05
3.15066e-05
2.54646e-05
2.05221e-05
1.72033e-05
1.48025e-05
1.30676e-05
1.1866e-05
1.10489e-05
1.04941e-05
1.0114e-05
9.84306e-06
9.63373e-06
9.45174e-06
9.2739e-06
9.0846e-06
8.87462e-06
8.63885e-06
8.37571e-06
8.08572e-06
7.77131e-06
7.43581e-06
7.08332e-06
6.71949e-06
6.35308e-06
5.97738e-06
5.54905e-06
5.24397e-06
5.75292e-06
4.70038e-06
0.00031957
0.000319162
0.00031887
0.000318656
0.000318476
0.000318325
0.000318199
0.000318096
0.000318015
0.000317958
0.00031793
0.000317934
0.000317978
0.000318068
0.000318213
0.00031842
0.000318695
0.000319045
0.000319474
0.00031998
0.000320561
0.000321202
0.000321882
0.000322565
0.000323193
0.000323633
0.000323657
0.000323248
0.000321678
0.000313081
0.000294577
0.000297566
0.000332545
0.000208178
0.000144727
0.000522221
0.00121256
0.00118459
0.00140812
0.00200076
0.000643072
0.000180159
0.000163187
4.66222e-06
5.67226e-06
2.25438e-05
2.70561e-05
1.79864e-05
1.16953e-05
8.73615e-06
7.00273e-06
6.00241e-06
5.56824e-06
5.48799e-06
5.61142e-06
5.84416e-06
6.12221e-06
6.40098e-06
6.65195e-06
6.8574e-06
7.00809e-06
7.10014e-06
7.13404e-06
7.1128e-06
7.04153e-06
6.92643e-06
6.77451e-06
6.59295e-06
6.39061e-06
6.17945e-06
5.95362e-06
5.66486e-06
5.51707e-06
6.30656e-06
5.30325e-06
0.000321321
0.000320627
0.000320128
0.000319765
0.00031947
0.000319236
0.00031906
0.000318939
0.000318871
0.000318857
0.0003189
0.000319008
0.000319186
0.000319445
0.000319794
0.000320246
0.000320811
0.000321501
0.000322328
0.000323301
0.000324426
0.000325706
0.000327138
0.000328716
0.000330439
0.000332251
0.000334093
0.000336826
0.00034066
0.000334641
0.000322447
0.000192934
0.000185511
0.00140795
0.000848891
0.000861492
0.00108201
0.00117657
0.00129412
0.0013895
0.00104604
0.00102751
0.00136455
0.000202067
1.21079e-05
3.24794e-05
2.8327e-05
9.70392e-06
9.44541e-07
-1.04816e-06
-1.66857e-06
-1.65883e-06
-1.11515e-06
-3.06634e-07
5.97451e-07
1.51348e-06
2.38749e-06
3.18564e-06
3.88868e-06
4.48854e-06
4.98396e-06
5.37885e-06
5.68002e-06
5.89649e-06
6.0382e-06
6.11593e-06
6.14043e-06
6.12241e-06
6.07382e-06
6.01005e-06
5.9261e-06
5.76942e-06
5.77017e-06
6.82383e-06
5.86792e-06
0.000322939
0.000321985
0.000321296
0.000320797
0.000320397
0.000320087
0.000319866
0.000319728
0.00031967
0.000319695
0.000319805
0.000320008
0.000320312
0.000320728
0.000321271
0.000321955
0.000322797
0.000323817
0.000325033
0.000326465
0.000328133
0.000330054
0.000332243
0.000334718
0.000337546
0.000340841
0.000344782
0.00035161
0.000364876
0.000350792
0.000299841
0.00060772
0.000720904
0.00103817
0.00098009
0.000992873
0.00107741
0.00114556
0.00120229
0.00121705
0.00112167
0.00109902
0.00113649
0.000964247
0.000757334
0.000137827
1.80021e-06
-1.0425e-05
-1.70964e-05
-1.40716e-05
-1.17342e-05
-9.99644e-06
-8.1267e-06
-6.24604e-06
-4.45565e-06
-2.79309e-06
-1.28457e-06
5.42142e-08
1.21985e-06
2.21661e-06
3.05443e-06
3.74615e-06
4.30667e-06
4.7514e-06
5.0961e-06
5.35616e-06
5.54657e-06
5.68144e-06
5.7761e-06
5.84912e-06
5.89662e-06
5.8621e-06
6.00008e-06
7.2971e-06
6.38578e-06
0.000324382
0.000323197
0.00032234
0.00032172
0.000321226
0.000320849
0.000320587
0.000320434
0.000320386
0.000320445
0.000320615
0.000320903
0.000321321
0.000321882
0.000322601
0.0003235
0.000324602
0.000325931
0.000327516
0.000329389
0.000331579
0.000334118
0.00033702
0.000340275
0.00034392
0.000348082
0.000351745
0.000353187
0.000369601
0.000453235
0.00174366
0.00113235
0.00100193
0.00104374
0.00104043
0.00105251
0.00108921
0.00112595
0.00115242
0.00115475
0.00112457
0.00111042
0.00111751
0.001125
0.00131272
0.00222629
-6.21536e-05
-2.51418e-05
-4.00233e-05
-2.84347e-05
-2.2265e-05
-1.84731e-05
-1.51157e-05
-1.21051e-05
-9.39318e-06
-6.95631e-06
-4.79814e-06
-2.91364e-06
-1.28861e-06
9.68482e-08
1.26512e-06
2.24004e-06
3.04508e-06
3.70316e-06
4.23588e-06
4.66376e-06
5.00586e-06
5.27991e-06
5.50437e-06
5.701e-06
5.86698e-06
5.94248e-06
6.20382e-06
7.71917e-06
6.84847e-06
0.000325612
0.000324229
0.000323228
0.000322504
0.00032193
0.000321495
0.000321198
0.000321031
0.000320992
0.000321081
0.000321303
0.000321667
0.000322184
0.000322871
0.000323748
0.000324839
0.000326172
0.000327782
0.000329707
0.00033199
0.000334679
0.000337819
0.000341437
0.000345483
0.000349933
0.000354835
0.000357184
0.000348324
0.000350512
0.000672295
0.00123261
0.00117645
0.00111076
0.00109443
0.00108541
0.0010875
0.00110099
0.00111662
0.0011267
0.00112498
0.00111142
0.00110058
0.00109812
0.00110554
0.00114738
0.0011538
0.000343689
-0.000123659
-4.47443e-05
-3.06048e-05
-2.96013e-05
-2.5887e-05
-2.15276e-05
-1.75982e-05
-1.4037e-05
-1.08446e-05
-8.04702e-06
-5.63119e-06
-3.565e-06
-1.81225e-06
-3.35917e-07