/*--------------------------------*- C++ -*----------------------------------*\
  =========                 |
  \\      /  F ield         | OpenFOAM: The Open Source CFD Toolbox
   \\    /   O peration     | Website:  https://openfoam.org
    \\  /    A nd           | Version:  7
     \\/     M anipulation  |
\*---------------------------------------------------------------------------*/
FoamFile
{
    version     2.0;
    format      ascii;
    class       surfaceScalarField;
    location    "25";
    object      phi;
}
// * * * * * * * * * * * * * * * * * * * * * * * * * * * * * * * * * * * * * //

dimensions      [0 3 -1 0 0 0 0];

internalField   nonuniform List<scalar> 
11100
(
1.93091e-13
7.35756e-14
1.32576e-13
6.05155e-14
9.56322e-14
3.69433e-14
7.28877e-14
2.27446e-14
5.83804e-14
1.45073e-14
4.87846e-14
9.59582e-15
4.21913e-14
6.59331e-15
3.75082e-14
4.6831e-15
3.41038e-14
3.4044e-15
3.15993e-14
2.50444e-15
2.97565e-14
1.84289e-15
2.84176e-14
1.33881e-15
2.74743e-14
9.43334e-16
2.68486e-14
6.25682e-16
2.64829e-14
3.6572e-16
2.63331e-14
1.49829e-16
2.63645e-14
-3.13723e-17
2.6549e-14
-1.845e-16
2.68632e-14
-3.14191e-16
2.72869e-14
-4.23761e-16
2.78024e-14
-5.15483e-16
2.83934e-14
-5.90968e-16
2.90446e-14
-6.51237e-16
2.97416e-14
-6.97003e-16
3.04703e-14
-7.28643e-16
3.12167e-14
-7.46454e-16
3.19673e-14
-7.5056e-16
3.27085e-14
-7.4118e-16
3.34269e-14
-7.18476e-16
3.41098e-14
-6.82838e-16
3.47445e-14
-6.34691e-16
3.53192e-14
-5.74785e-16
3.58232e-14
-5.03949e-16
3.62466e-14
-4.23393e-16
3.6581e-14
-3.34401e-16
3.68196e-14
-2.38628e-16
3.69574e-14
-1.37738e-16
3.69911e-14
-3.36937e-17
3.69194e-14
7.16502e-17
3.67431e-14
1.76261e-16
3.64648e-14
2.78355e-16
3.60887e-14
3.76096e-16
3.56207e-14
4.68024e-16
3.50679e-14
5.5272e-16
3.44387e-14
6.29214e-16
3.37421e-14
6.96619e-16
3.29876e-14
7.54503e-16
3.21851e-14
8.02512e-16
3.13444e-14
8.40707e-16
3.04752e-14
8.69186e-16
2.95868e-14
8.88391e-16
2.86881e-14
8.98757e-16
2.77871e-14
9.00988e-16
2.68913e-14
8.95737e-16
2.60075e-14
8.83862e-16
2.51413e-14
8.66144e-16
2.42978e-14
8.43511e-16
2.3481e-14
8.16811e-16
2.2694e-14
7.86999e-16
2.1939e-14
7.5496e-16
2.12174e-14
7.21672e-16
2.05293e-14
6.88074e-16
1.98741e-14
6.55211e-16
1.92499e-14
6.24152e-16
1.86538e-14
5.96144e-16
1.80812e-14
5.72597e-16
1.75259e-14
5.553e-16
1.69793e-14
5.46581e-16
1.64295e-14
5.49854e-16
1.58591e-14
5.70316e-16
1.52434e-14
6.15715e-16
1.45446e-14
6.98823e-16
1.36945e-14
8.50116e-16
1.25723e-14
1.12216e-15
1.45549e-15
2.69396e-13
7.08463e-14
2.4083e-13
8.90816e-14
2.05436e-13
7.23376e-14
1.74342e-13
5.38387e-14
1.49605e-13
3.92442e-14
1.3059e-13
2.86108e-14
1.16117e-13
2.10663e-14
1.05111e-13
1.56889e-14
9.67384e-14
1.17767e-14
9.03858e-14
8.85697e-15
8.56072e-14
6.62149e-15
8.20771e-14
4.86892e-15
7.95546e-14
3.46582e-15
7.78581e-14
2.32217e-15
7.68479e-14
1.37597e-15
7.64139e-14
5.83852e-16
7.64675e-14
-8.50086e-17
7.69356e-14
-6.52636e-16
7.77563e-14
-1.13487e-15
7.88756e-14
-1.54302e-15
8.02452e-14
-1.8851e-15
8.18209e-14
-2.16666e-15
8.35612e-14
-2.3915e-15
8.54262e-14
-2.56205e-15
8.73775e-14
-2.67993e-15
8.93772e-14
-2.74613e-15
9.1388e-14
-2.76143e-15
9.33734e-14
-2.72652e-15
9.52973e-14
-2.64239e-15
9.71248e-14
-2.51035e-15
9.88225e-14
-2.33234e-15
1.00359e-13
-2.11093e-15
1.01704e-13
-1.84955e-15
1.02833e-13
-1.55235e-15
1.03723e-13
-1.2244e-15
1.04356e-13
-8.71403e-16
1.04718e-13
-4.99778e-16
1.04801e-13
-1.1628e-16
1.046e-13
2.71987e-16
1.04118e-13
6.5804e-16
1.03362e-13
1.03502e-15
1.02341e-13
1.39665e-15
1.01072e-13
1.73721e-15
9.95728e-14
2.05191e-15
9.78653e-14
2.33676e-15
9.59731e-14
2.58886e-15
9.39214e-14
2.80615e-15
9.17363e-14
2.98763e-15
8.94439e-14
3.13306e-15
8.70701e-14
3.24304e-15
8.46397e-14
3.31875e-15
8.21765e-14
3.36202e-15
7.97024e-14
3.37504e-15
7.72377e-14
3.36045e-15
7.48005e-14
3.32105e-15
7.24067e-14
3.25995e-15
7.00699e-14
3.18029e-15
6.78013e-14
3.08541e-15
6.56097e-14
2.97861e-15
6.35014e-14
2.86334e-15
6.148e-14
2.74304e-15
5.95468e-14
2.62131e-15
5.77001e-14
2.50182e-15
5.59357e-14
2.38856e-15
5.42461e-14
2.28581e-15
5.26202e-14
2.19846e-15
5.10433e-14
2.13225e-15
4.94956e-14
2.09426e-15
4.79518e-14
2.0936e-15
4.63798e-14
2.14238e-15
4.47393e-14
2.25619e-15
4.29827e-14
2.45543e-15
4.10625e-14
2.77033e-15
3.8968e-14
3.21661e-15
3.64179e-15
2.79685e-13
5.78281e-14
2.75628e-13
9.31381e-14
2.57303e-13
9.0663e-14
2.34242e-13
7.68996e-14
2.11727e-13
6.1759e-14
1.91888e-13
4.84504e-14
1.75282e-13
3.76719e-14
1.61779e-13
2.91922e-14
1.51004e-13
2.25517e-14
1.42544e-13
1.7317e-14
1.36023e-13
1.31424e-14
1.31124e-13
9.76799e-15
1.27586e-13
7.00346e-15
1.25198e-13
4.71007e-15
1.23788e-13
2.78678e-15
1.23212e-13
1.15969e-15
1.23352e-13
-2.2534e-16
1.24108e-13
-1.40809e-15
1.2539e-13
-2.41762e-15
1.27122e-13
-3.27503e-15
1.29233e-13
-3.99539e-15
1.31655e-13
-4.5893e-15
1.34328e-13
-5.06393e-15
1.3719e-13
-5.42405e-15
1.40183e-13
-5.6727e-15
1.43248e-13
-5.81191e-15
1.4633e-13
-5.84321e-15
1.49372e-13
-5.76819e-15
1.52318e-13
-5.58885e-15
1.55116e-13
-5.30817e-15
1.57714e-13
-4.93018e-15
1.60063e-13
-4.46052e-15
1.6212e-13
-3.90632e-15
1.63844e-13
-3.27653e-15
1.65202e-13
-2.58169e-15
1.66164e-13
-1.83397e-15
1.66711e-13
-1.04671e-15
1.66829e-13
-2.34281e-16
1.66513e-13
5.88573e-16
1.65764e-13
1.407e-15
1.64592e-13
2.20677e-15
1.63014e-13
2.97451e-15
1.61053e-13
3.69836e-15
1.58737e-13
4.36801e-15
1.56098e-13
4.97522e-15
1.53174e-13
5.51363e-15
1.50001e-13
5.97902e-15
1.46619e-13
6.369e-15
1.43069e-13
6.6831e-15
1.3939e-13
6.92234e-15
1.35619e-13
7.08925e-15
1.31794e-13
7.18743e-15
1.27948e-13
7.22154e-15
1.24111e-13
7.19692e-15
1.20313e-13
7.11956e-15
1.16577e-13
6.99582e-15
1.12925e-13
6.83242e-15
1.09374e-13
6.63624e-15
1.05938e-13
6.41434e-15
1.02628e-13
6.17387e-15
9.94484e-14
5.92212e-15
9.64032e-14
5.66649e-15
9.34904e-14
5.41466e-15
9.07043e-14
5.17462e-15
8.80352e-14
4.95493e-15
8.54688e-14
4.76493e-15
8.29859e-14
4.6151e-15
8.05627e-14
4.51743e-15
7.81704e-14
4.48595e-15
7.5776e-14
4.53682e-15
7.33448e-14
4.68734e-15
7.08464e-14
4.95378e-15
6.82695e-14
5.34729e-15
6.56479e-14
5.83816e-15
6.2333e-15
2.78546e-13
4.59488e-14
2.8445e-13
8.72341e-14
2.79063e-13
9.60499e-14
2.6637e-13
8.95922e-14
2.50608e-13
7.75217e-14
2.34558e-13
6.45002e-14
2.19732e-13
5.24976e-14
2.06794e-13
4.21302e-14
1.95926e-13
3.34203e-14
1.87068e-13
2.61745e-14
1.8006e-13
2.01504e-14
1.74707e-13
1.51209e-14
1.70816e-13
1.08946e-14
1.68208e-13
7.31793e-15
1.66724e-13
4.27085e-15
1.66223e-13
1.66074e-15
1.66581e-13
-5.83116e-16
1.67687e-13
-2.51418e-15
1.69442e-13
-4.17247e-15
1.71754e-13
-5.58745e-15
1.74539e-13
-6.78043e-15
1.77716e-13
-7.76639e-15
1.81208e-13
-8.55554e-15
1.84938e-13
-9.15454e-15
1.88833e-13
-9.56767e-15
1.92819e-13
-9.79769e-15
1.96823e-13
-9.84685e-15
2.00772e-13
-9.71749e-15
2.04596e-13
-9.41293e-15
2.08226e-13
-8.93793e-15
2.11595e-13
-8.29938e-15
2.14641e-13
-7.50652e-15
2.17306e-13
-6.57148e-15
2.19539e-13
-5.50913e-15
2.21295e-13
-4.33729e-15
2.22537e-13
-3.07623e-15
2.23239e-13
-1.7485e-15
2.23382e-13
-3.78092e-16
2.22961e-13
1.01009e-15
2.21977e-13
2.39125e-15
2.20442e-13
3.74133e-15
2.18379e-13
5.03801e-15
2.15816e-13
6.2612e-15
2.1279e-13
7.39374e-15
2.09344e-13
8.42161e-15
2.05523e-13
9.33424e-15
2.01378e-13
1.01244e-14
1.96959e-13
1.0788e-14
1.92318e-13
1.13242e-14
1.87505e-13
1.17347e-14
1.82571e-13
1.20236e-14
1.77561e-13
1.21968e-14
1.72521e-13
1.2262e-14
1.6749e-13
1.22281e-14
1.62504e-13
1.21051e-14
1.57596e-13
1.19036e-14
1.52794e-13
1.16348e-14
1.4812e-13
1.13101e-14
1.43593e-13
1.09413e-14
1.39227e-13
1.05403e-14
1.3503e-13
1.01192e-14
1.31006e-13
9.69005e-15
1.27155e-13
9.2654e-15
1.23472e-13
8.85801e-15
1.19946e-13
8.48121e-15
1.16562e-13
8.14909e-15
1.133e-13
7.87665e-15
1.10138e-13
7.67999e-15
1.07047e-13
7.57614e-15
1.04002e-13
7.58224e-15
1.00976e-13
7.71286e-15
9.79549e-14
7.97525e-15
9.49411e-14
8.36115e-15
9.19644e-14
8.81486e-15
9.15136e-15
2.7572e-13
3.68952e-14
2.84698e-13
7.82559e-14
2.86825e-13
9.39234e-14
2.82391e-13
9.40259e-14
2.73677e-13
8.6236e-14
2.62921e-13
7.52564e-14
2.51764e-13
6.3654e-14
2.4123e-13
5.26642e-14
2.31873e-13
4.27778e-14
2.2394e-13
3.41075e-14
2.17497e-13
2.65933e-14
2.12509e-13
2.0109e-14
2.08889e-13
1.45143e-14
2.06529e-13
9.67797e-15
2.05313e-13
5.48669e-15
2.05127e-13
1.8466e-15
2.05862e-13
-1.31763e-15
2.07413e-13
-4.06514e-15
2.09682e-13
-6.4413e-15
2.12574e-13
-8.48018e-15
2.16e-13
-1.02065e-14
2.19872e-13
-1.16377e-14
2.24102e-13
-1.27854e-14
2.28604e-13
-1.36571e-14
2.33294e-13
-1.42574e-14
2.38085e-13
-1.4589e-14
2.42893e-13
-1.46543e-14
2.47631e-13
-1.44562e-14
2.52217e-13
-1.3999e-14
2.56569e-13
-1.32894e-14
2.60607e-13
-1.23372e-14
2.64256e-13
-1.11561e-14
2.67449e-13
-9.76363e-15
2.70121e-13
-8.1819e-15
2.72221e-13
-6.43712e-15
2.73704e-13
-4.55949e-15
2.74538e-13
-2.58236e-15
2.74702e-13
-5.41518e-16
2.74186e-13
1.5261e-15
2.72993e-13
3.58345e-15
2.7114e-13
5.59486e-15
2.68651e-13
7.52699e-15
2.65562e-13
9.3501e-15
2.61917e-13
1.10386e-14
2.57767e-13
1.25718e-14
2.53167e-13
1.3934e-14
2.48177e-13
1.51145e-14
2.42858e-13
1.61074e-14
2.37271e-13
1.69113e-14
2.31477e-13
1.75286e-14
2.25535e-13
1.79655e-14
2.19501e-13
1.82307e-14
2.13427e-13
1.83355e-14
2.07362e-13
1.82931e-14
2.0135e-13
1.81179e-14
1.95428e-13
1.78258e-14
1.89629e-13
1.7433e-14
1.83983e-13
1.69565e-14
1.78511e-13
1.64134e-14
1.7323e-13
1.58213e-14
1.68152e-13
1.51975e-14
1.63282e-13
1.45596e-14
1.58622e-13
1.39254e-14
1.54167e-13
1.33128e-14
1.49908e-13
1.27401e-14
1.45831e-13
1.2226e-14
1.41919e-13
1.17894e-14
1.38149e-13
1.14495e-14
1.345e-13
1.1225e-14
1.3095e-13
1.11322e-14
1.27482e-13
1.11816e-14
1.24085e-13
1.13722e-14
1.20762e-13
1.16834e-14
1.17526e-13
1.20508e-14
1.23156e-14
2.73336e-13
3.02263e-14
2.82602e-13
6.89892e-14
2.88534e-13
8.79913e-14
2.89676e-13
9.28842e-14
2.86745e-13
8.91672e-14
2.81121e-13
8.08806e-14
2.74135e-13
7.06399e-14
2.66816e-13
5.99835e-14
2.59862e-13
4.97312e-14
2.53704e-13
4.02657e-14
2.48576e-13
3.17213e-14
2.44583e-13
2.41024e-14
2.41745e-13
1.73516e-14
2.40036e-13
1.13877e-14
2.39396e-13
6.12667e-15
2.39752e-13
1.4906e-15
2.41022e-13
-2.58757e-15
2.4312e-13
-6.16303e-15
2.45958e-13
-9.27953e-15
2.49448e-13
-1.19703e-14
2.53501e-13
-1.42597e-14
2.58028e-13
-1.61645e-14
2.62938e-13
-1.76955e-14
2.6814e-13
-1.88591e-14
2.73541e-13
-1.96586e-14
2.79048e-13
-2.00958e-14
2.84566e-13
-2.01722e-14
2.9e-13
-1.98903e-14
2.95256e-13
-1.92551e-14
3.00242e-13
-1.82749e-14
3.04867e-13
-1.69625e-14
3.09047e-13
-1.53359e-14
3.12702e-13
-1.34189e-14
3.15762e-13
-1.12415e-14
3.18164e-13
-8.8395e-15
3.19859e-13
-6.25422e-15
3.20808e-13
-3.53165e-15
3.20987e-13
-7.2101e-16
3.20387e-13
2.12659e-15
3.1901e-13
4.96009e-15
3.16875e-13
7.73011e-15
3.14011e-13
1.03908e-14
3.1046e-13
1.2901e-14
3.06273e-13
1.52259e-14
3.01508e-13
1.73369e-14
2.96229e-13
1.92126e-14
2.90505e-13
2.08387e-14
2.84405e-13
2.22072e-14
2.78e-13
2.33162e-14
2.7136e-13
2.41695e-14
2.6455e-13
2.47752e-14
2.57635e-13
2.51455e-14
2.50675e-13
2.52958e-14
2.43724e-13
2.52441e-14
2.36832e-13
2.50102e-14
2.30042e-13
2.46153e-14
2.23393e-13
2.40818e-14
2.16917e-13
2.34326e-14
2.10639e-13
2.2691e-14
2.04581e-13
2.18802e-14
1.98754e-13
2.10239e-14
1.93168e-13
2.01453e-14
1.87826e-13
1.92678e-14
1.82724e-13
1.84145e-14
1.77856e-13
1.76086e-14
1.73209e-13
1.68732e-14
1.68767e-13
1.62306e-14
1.64514e-13
1.57026e-14
1.60431e-13
1.53086e-14
1.56499e-13
1.5064e-14
1.52704e-13
1.49761e-14
1.49038e-13
1.50389e-14
1.45494e-13
1.52265e-14
1.42068e-13
1.54773e-14
1.56635e-14
2.71687e-13
2.52056e-14
2.80299e-13
6.03773e-14
2.87891e-13
8.03991e-14
2.92457e-13
8.83188e-14
2.93761e-13
8.78628e-14
2.9243e-13
8.22122e-14
2.8935e-13
7.37191e-14
2.85366e-13
6.39679e-14
2.81152e-13
5.39457e-14
2.77196e-13
4.42212e-14
2.73826e-13
3.50916e-14
2.7124e-13
2.66877e-14
2.69548e-13
1.90442e-14
2.68791e-13
1.21446e-14
2.68969e-13
5.94831e-15
2.70053e-13
4.06592e-16
2.71994e-13
-4.52835e-15
2.7473e-13
-8.89896e-15
2.78191e-13
-1.27401e-14
2.82299e-13
-1.60789e-14
2.86974e-13
-1.89345e-14
2.92129e-13
-2.13198e-14
2.97675e-13
-2.32417e-14
3.0352e-13
-2.47035e-14
3.09566e-13
-2.57052e-14
3.15716e-13
-2.62459e-14
3.21869e-13
-2.63251e-14
3.27923e-13
-2.5944e-14
3.33775e-13
-2.51073e-14
3.39325e-13
-2.38243e-14
3.44472e-13
-2.21103e-14
3.49125e-13
-1.9988e-14
3.53193e-13
-1.74873e-14
3.56598e-13
-1.46467e-14
3.59271e-13
-1.15125e-14
3.61155e-13
-8.13848e-15
3.62208e-13
-4.58455e-15
3.62403e-13
-9.15362e-16
3.61727e-13
2.80208e-15
3.60187e-13
6.50058e-15
3.57802e-13
1.01154e-14
3.54606e-13
1.35862e-14
3.50648e-13
1.68595e-14
3.45984e-13
1.98897e-14
3.40681e-13
2.26399e-14
3.34811e-13
2.50827e-14
3.2845e-13
2.71997e-14
3.21676e-13
2.8981e-14
3.14567e-13
3.04248e-14
3.07201e-13
3.15361e-14
2.9965e-13
3.23257e-14
2.91986e-13
3.28098e-14
2.84273e-13
3.30083e-14
2.76573e-13
3.29444e-14
2.68939e-13
3.26439e-14
2.6142e-13
3.21342e-14
2.54058e-13
3.14439e-14
2.46888e-13
3.06026e-14
2.3994e-13
2.96398e-14
2.33234e-13
2.85855e-14
2.26789e-13
2.74694e-14
2.20613e-13
2.63207e-14
2.14713e-13
2.51686e-14
2.09086e-13
2.40416e-14
2.03727e-13
2.29674e-14
1.98627e-13
2.19733e-14
1.93772e-13
2.1085e-14
1.89148e-13
2.03263e-14
1.84739e-13
1.97178e-14
1.80529e-13
1.92742e-14
1.76504e-13
1.90017e-14
1.72649e-13
1.8893e-14
1.68953e-13
1.89226e-14
1.65393e-13
1.90375e-14
1.91413e-14
2.70604e-13
2.12681e-14
2.78361e-13
5.26206e-14
2.86495e-13
7.2265e-14
2.93018e-13
8.17957e-14
2.97222e-13
8.3659e-14
2.99199e-13
8.0235e-14
2.9943e-13
7.34886e-14
2.98507e-13
6.48904e-14
2.96991e-13
5.54619e-14
2.95342e-13
4.58696e-14
2.93912e-13
3.65223e-14
2.92946e-13
2.76533e-14
2.92608e-13
1.9382e-14
2.92995e-13
1.17577e-14
2.94154e-13
4.78934e-15
2.96096e-13
-1.53522e-15
2.98805e-13
-7.23713e-15
3.02245e-13
-1.23391e-14
3.06366e-13
-1.68614e-14
3.11107e-13
-2.08195e-14
3.16396e-13
-2.42237e-14
3.22155e-13
-2.7079e-14
3.28299e-13
-2.93859e-14
3.34737e-13
-3.11414e-14
3.41373e-13
-3.23407e-14
3.48105e-13
-3.29783e-14
3.5483e-13
-3.30499e-14
3.6144e-13
-3.25542e-14
3.67827e-13
-3.14944e-14
3.73883e-13
-2.988e-14
3.79501e-13
-2.77284e-14
3.84579e-13
-2.5066e-14
3.89021e-13
-2.19294e-14
3.9274e-13
-1.83655e-14
3.95659e-13
-1.4432e-14
3.97717e-13
-1.0196e-14
3.98865e-13
-5.73314e-15
3.99075e-13
-1.12498e-15
3.98334e-13
3.54343e-15
3.96647e-13
8.18686e-15
3.9404e-13
1.27231e-14
3.9055e-13
1.70761e-14
3.86231e-13
2.11783e-14
3.81148e-13
2.49725e-14
3.75375e-13
2.84132e-14
3.68991e-13
3.14665e-14
3.62081e-13
3.41103e-14
3.54729e-13
3.6333e-14
3.4702e-13
3.81331e-14
3.39039e-13
3.95174e-14
3.30865e-13
4.05001e-14
3.22573e-13
4.11016e-14
3.14234e-13
4.1347e-14
3.05913e-13
4.12654e-14
2.97668e-13
4.08888e-14
2.89551e-13
4.02513e-14
2.81607e-13
3.93882e-14
2.73873e-13
3.83359e-14
2.66382e-13
3.7131e-14
2.59158e-13
3.58099e-14
2.52218e-13
3.44088e-14
2.45576e-13
3.29632e-14
2.39236e-13
3.15079e-14
2.33201e-13
3.00767e-14
2.27467e-13
2.8702e-14
2.22025e-13
2.74151e-14
2.16865e-13
2.62449e-14
2.11974e-13
2.52176e-14
2.07336e-13
2.4355e-14
2.02938e-13
2.3673e-14
1.98761e-13
2.31782e-14
1.94789e-13
2.28651e-14
1.90999e-13
2.27126e-14
1.87358e-13
2.26792e-14
2.26982e-14
2.69886e-13
1.80486e-14
2.76842e-13
4.56645e-14
2.84978e-13
6.41294e-14
2.92535e-13
7.42389e-14
2.98626e-13
7.7568e-14
3.03019e-13
7.58421e-14
3.05879e-13
7.06277e-14
3.07566e-13
6.3204e-14
3.08489e-13
5.45392e-14
3.09034e-13
4.53241e-14
3.09529e-13
3.60279e-14
3.10228e-13
2.69542e-14
3.1132e-13
1.82899e-14
3.12935e-13
1.01427e-14
3.15154e-13
2.56977e-15
3.18022e-13
-4.40255e-15
3.2155e-13
-1.0765e-14
3.25727e-13
-1.65166e-14
3.30524e-13
-2.16584e-14
3.35895e-13
-2.61906e-14
3.41782e-13
-3.01108e-14
3.48117e-13
-3.34132e-14
3.54819e-13
-3.60886e-14
3.61804e-13
-3.8126e-14
3.68976e-13
-3.95129e-14
3.76235e-13
-4.02375e-14
3.83475e-13
-4.029e-14
3.90586e-13
-3.96651e-14
3.97455e-13
-3.83632e-14
4.03968e-13
-3.63928e-14
4.10012e-13
-3.37723e-14
4.15477e-13
-3.05315e-14
4.20261e-13
-2.67129e-14
4.24268e-13
-2.23724e-14
4.27415e-13
-1.75792e-14
4.29634e-13
-1.24149e-14
4.30873e-13
-6.97217e-15
4.31099e-13
-1.3515e-15
4.30301e-13
4.34201e-15
4.28485e-13
1.00028e-14
4.25678e-13
1.55294e-14
4.21927e-13
2.08278e-14
4.17289e-13
2.58155e-14
4.11839e-13
3.04231e-14
4.05656e-13
3.45957e-14
3.9883e-13
3.82933e-14
3.9145e-13
4.14904e-14
3.83608e-13
4.41741e-14
3.75398e-13
4.63439e-14
3.66906e-13
4.80092e-14
3.58218e-13
4.9188e-14
3.49414e-13
4.99055e-14
3.40568e-13
5.01926e-14
3.31749e-13
5.00847e-14
3.23017e-13
4.96204e-14
3.14428e-13
4.88408e-14
3.06028e-13
4.77885e-14
2.97857e-13
4.6507e-14
2.89948e-13
4.50397e-14
2.82328e-13
4.34302e-14
2.75015e-13
4.1721e-14
2.68024e-13
3.9954e-14
2.61363e-13
3.81697e-14
2.55032e-13
3.64071e-14
2.49031e-13
3.47033e-14
2.43353e-13
3.30935e-14
2.37988e-13
3.161e-14
2.32924e-13
3.02816e-14
2.28146e-13
2.91324e-14
2.23639e-13
2.81801e-14
2.19383e-13
2.7434e-14
2.15356e-13
2.68927e-14
2.11527e-13
2.65415e-14
2.07854e-13
2.63517e-14
2.62845e-14
2.69394e-13
1.53213e-14
2.75666e-13
3.93926e-14
2.83558e-13
5.62373e-14
2.91585e-13
6.62116e-14
2.98841e-13
7.03124e-14
3.0492e-13
6.97634e-14
3.09772e-13
6.57749e-14
3.13564e-13
5.94121e-14
3.16562e-13
5.15413e-14
3.19059e-13
4.28268e-14
3.21332e-13
3.37551e-14
3.23618e-13
2.46688e-14
3.26106e-13
1.58015e-14
3.28941e-13
7.30725e-15
3.32226e-13
-7.15007e-16
3.36026e-13
-8.20259e-15
3.40377e-13
-1.51157e-14
3.45288e-13
-2.14277e-14
3.50748e-13
-2.71183e-14
3.56727e-13
-3.21699e-14
3.63181e-13
-3.65645e-14
3.7005e-13
-4.02828e-14
3.77266e-13
-4.3304e-14
3.84746e-13
-4.56062e-14
3.92401e-13
-4.71676e-14
4.00131e-13
-4.7968e-14
4.07832e-13
-4.79905e-14
4.1539e-13
-4.72237e-14
4.22691e-13
-4.56639e-14
4.29616e-13
-4.33173e-14
4.36045e-13
-4.02021e-14
4.41864e-13
-3.63504e-14
4.46962e-13
-3.18103e-14
4.51235e-13
-2.66461e-14
4.54595e-13
-2.0939e-14
4.56966e-13
-1.47861e-14
4.58293e-13
-8.2983e-15
4.58538e-13
-1.59719e-15
4.57691e-13
5.18969e-15
4.55759e-13
1.19341e-14
4.52776e-13
1.85126e-14
4.48792e-13
2.48121e-14
4.43874e-13
3.07333e-14
4.38103e-13
3.61941e-14
4.31568e-13
4.11304e-14
4.24365e-13
4.54965e-14
4.16592e-13
4.92637e-14
4.08347e-13
5.24193e-14
3.99727e-13
5.49642e-14
3.90824e-13
5.69112e-14
3.8173e-13
5.82829e-14
3.72525e-13
5.91099e-14
3.63288e-13
5.94294e-14
3.5409e-13
5.92834e-14
3.44992e-13
5.87177e-14
3.36052e-13
5.77807e-14
3.27319e-13
5.65223e-14
3.18832e-13
5.49934e-14
3.10627e-13
5.32447e-14
3.02731e-13
5.13265e-14
2.95164e-13
4.92884e-14
2.8794e-13
4.71781e-14
2.81067e-13
4.5042e-14
2.7455e-13
4.29243e-14
2.68386e-13
4.08669e-14
2.62571e-13
3.89088e-14
2.57095e-13
3.7086e-14
2.51946e-13
3.54303e-14
2.4711e-13
3.39687e-14
2.42568e-13
3.2722e-14
2.38299e-13
3.17035e-14
2.34274e-13
3.09172e-14
2.30459e-13
3.03564e-14
2.26806e-13
3.00052e-14
2.98509e-14
2.69041e-13
1.29469e-14
2.74741e-13
3.36931e-14
2.82285e-13
4.86924e-14
2.90442e-13
5.80548e-14
2.98359e-13
6.23957e-14
3.05555e-13
6.2567e-14
3.11849e-13
5.94815e-14
3.17261e-13
5.39993e-14
3.21938e-13
4.68646e-14
3.26081e-13
3.86843e-14
3.29905e-13
2.9931e-14
3.33614e-13
2.096e-14
3.37383e-13
1.20317e-14
3.41358e-13
3.3324e-15
3.45649e-13
-5.00558e-15
3.50335e-13
-1.28883e-14
3.55467e-13
-2.02477e-14
3.61071e-13
-2.7032e-14
3.67152e-13
-3.3199e-14
3.73693e-13
-3.87117e-14
3.80664e-13
-4.35349e-14
3.88015e-13
-4.76343e-14
3.95686e-13
-5.09751e-14
4.03603e-13
-5.3523e-14
4.1168e-13
-5.52448e-14
4.19823e-13
-5.61102e-14
4.27925e-13
-5.60931e-14
4.35877e-13
-5.51749e-14
4.43558e-13
-5.33458e-14
4.50849e-13
-5.06081e-14
4.57625e-13
-4.69783e-14
4.63765e-13
-4.249e-14
4.6915e-13
-3.71954e-14
4.73671e-13
-3.11671e-14
4.7723e-13
-2.44981e-14
4.79746e-13
-1.73018e-14
4.81157e-13
-9.70906e-15
4.81424e-13
-1.86455e-15
4.80535e-13
6.07893e-15
4.78501e-13
1.39674e-14
4.75361e-13
2.16532e-14
4.71171e-13
2.90015e-14
4.66009e-13
3.58955e-14
4.59963e-13
4.22399e-14
4.53132e-13
4.79618e-14
4.45618e-13
5.30103e-14
4.37527e-13
5.73551e-14
4.28962e-13
6.09843e-14
4.20024e-13
6.39016e-14
4.10812e-13
6.61239e-14
4.01415e-13
6.76793e-14
3.91921e-13
6.86044e-14
3.82407e-13
6.89431e-14
3.72946e-13
6.87445e-14
3.63602e-13
6.80617e-14
3.54432e-13
6.69507e-14
3.45485e-13
6.54691e-14
3.36804e-13
6.36751e-14
3.28421e-13
6.16269e-14
3.20366e-13
5.93819e-14
3.12658e-13
5.69961e-14
3.05313e-13
5.45236e-14
2.98338e-13
5.20164e-14
2.91739e-13
4.9524e-14
2.85513e-13
4.70929e-14
2.79655e-13
4.47663e-14
2.74157e-13
4.25838e-14
2.69007e-13
4.05809e-14
2.64188e-13
3.8788e-14
2.5968e-13
3.72297e-14
2.55459e-13
3.59243e-14
2.51494e-13
3.48825e-14
2.47745e-13
3.41055e-14
2.44159e-13
3.35905e-14
3.3349e-14
2.68775e-13
1.08386e-14
2.73991e-13
2.84775e-14
2.81148e-13
4.1535e-14
2.89225e-13
4.99782e-14
2.97452e-13
5.41686e-14
3.05333e-13
5.46859e-14
3.1261e-13
5.22043e-14
3.19208e-13
4.74011e-14
3.25176e-13
4.08965e-14
3.30636e-13
3.32245e-14
3.35744e-13
2.48236e-14
3.40661e-13
1.60422e-14
3.45543e-13
7.1503e-15
3.50522e-13
-1.64641e-15
3.55708e-13
-1.01919e-14
3.61187e-13
-1.83673e-14
3.67019e-13
-2.60798e-14
3.73242e-13
-3.32549e-14
3.79872e-13
-3.9829e-14
3.86906e-13
-4.57457e-14
3.94323e-13
-5.0952e-14
4.02086e-13
-5.5397e-14
4.10142e-13
-5.90309e-14
4.18424e-13
-6.18054e-14
4.26854e-13
-6.36745e-14
4.35339e-13
-6.45957e-14
4.43779e-13
-6.45329e-14
4.52062e-13
-6.34577e-14
4.60069e-13
-6.1353e-14
4.67676e-13
-5.82155e-14
4.74756e-13
-5.40584e-14
4.81181e-13
-4.8915e-14
4.86826e-13
-4.28406e-14
4.91574e-13
-3.59149e-14
4.95319e-13
-2.8243e-14
4.97972e-13
-1.99546e-14
4.99465e-13
-1.12021e-14
4.99756e-13
-2.15584e-15
4.98832e-13
7.00281e-15
4.96709e-13
1.60906e-14
4.9343e-13
2.49324e-14
4.89062e-13
3.33694e-14
4.83691e-13
4.12663e-14
4.77417e-13
4.85144e-14
4.70346e-13
5.50329e-14
4.62589e-13
6.07672e-14
4.54257e-13
6.56868e-14
4.45459e-13
6.97822e-14
4.363e-13
7.3061e-14
4.26878e-13
7.55456e-14
4.17288e-13
7.72698e-14
4.07615e-13
7.82771e-14
3.9794e-13
7.86184e-14
3.88334e-13
7.83502e-14
3.78862e-13
7.75333e-14
3.69582e-13
7.62313e-14
3.60541e-13
7.45094e-14
3.51783e-13
7.24335e-14
3.43341e-13
7.00693e-14
3.35241e-13
6.74811e-14
3.27506e-13
6.47316e-14
3.20148e-13
6.18812e-14
3.13177e-13
5.89875e-14
3.06596e-13
5.61051e-14
3.00404e-13
5.32851e-14
2.94595e-13
5.05752e-14
2.8916e-13
4.80187e-14
2.84086e-13
4.56549e-14
2.79356e-13
4.35181e-14
2.74948e-13
4.16375e-14
2.70836e-13
4.00368e-14
2.66984e-13
3.87337e-14
2.63352e-13
3.7738e-14
2.59884e-13
3.70588e-14
3.67309e-14
2.68564e-13
8.94141e-15
2.7336e-13
2.36815e-14
2.80115e-13
3.47795e-14
2.87978e-13
4.21154e-14
2.96268e-13
4.58786e-14
3.04504e-13
4.64496e-14
3.12394e-13
4.43148e-14
3.198e-13
3.99952e-14
3.26701e-13
3.39951e-14
3.33155e-13
2.67708e-14
3.39263e-13
1.87155e-14
3.45148e-13
1.0157e-14
3.50937e-13
1.36177e-15
3.56747e-13
-7.45622e-15
3.62681e-13
-1.61262e-14
3.68824e-13
-2.45108e-14
3.75242e-13
-3.24975e-14
3.81979e-13
-3.99917e-14
3.8906e-13
-4.69104e-14
3.96493e-13
-5.31783e-14
4.04265e-13
-5.87246e-14
4.1235e-13
-6.34818e-14
4.20703e-13
-6.7384e-14
4.29266e-13
-7.03678e-14
4.37964e-13
-7.2373e-14
4.46713e-13
-7.33443e-14
4.55413e-13
-7.32331e-14
4.63956e-13
-7.20006e-14
4.72223e-13
-6.96202e-14
4.80089e-13
-6.60813e-14
4.87423e-13
-6.13922e-14
4.94092e-13
-5.55839e-14
4.99964e-13
-4.87133e-14
5.04915e-13
-4.08659e-14
5.0883e-13
-3.21578e-14
5.11611e-13
-2.27354e-14
5.13183e-13
-1.27741e-14
5.135e-13
-2.47267e-15
5.12548e-13
7.95494e-15
5.10347e-13
1.82919e-14
5.06948e-13
2.83312e-14
5.02429e-13
3.78881e-14
4.96888e-13
4.68074e-14
4.90435e-13
5.49678e-14
4.83186e-13
6.22819e-14
4.75259e-13
6.86939e-14
4.66771e-13
7.4175e-14
4.57833e-13
7.87198e-14
4.48553e-13
8.23415e-14
4.39029e-13
8.50687e-14
4.29357e-13
8.69422e-14
4.19622e-13
8.80122e-14
4.09903e-13
8.83371e-14
4.00273e-13
8.79808e-14
3.90794e-13
8.70119e-14
3.81524e-13
8.55017e-14
3.7251e-13
8.35232e-14
3.63793e-13
8.11501e-14
3.55407e-13
7.84553e-14
3.47378e-13
7.55102e-14
3.39725e-13
7.23843e-14
3.32463e-13
6.91439e-14
3.25598e-13
6.58524e-14
3.19134e-13
6.25694e-14
3.13068e-13
5.93507e-14
3.07395e-13
5.62481e-14
3.02105e-13
5.33092e-14
2.97183e-13
5.05769e-14
2.92611e-13
4.80899e-14
2.88366e-13
4.58821e-14
2.8442e-13
4.39832e-14
2.80736e-13
4.24177e-14
2.7727e-13
4.12038e-14
2.73967e-13
4.03621e-14
3.99492e-14
2.68388e-13
7.22028e-15
2.72808e-13
1.92608e-14
2.79156e-13
2.84321e-14
2.86714e-13
3.45572e-14
2.94887e-13
3.77056e-14
3.03225e-13
3.81113e-14
3.11427e-13
3.61134e-14
3.19318e-13
3.21034e-14
3.26832e-13
2.64816e-14
3.33974e-13
1.96283e-14
3.40803e-13
1.18867e-14
3.47405e-13
3.55548e-15
3.53878e-13
-5.11124e-15
3.60322e-13
-1.39004e-14
3.6683e-13
-2.26342e-14
3.73482e-13
-3.11631e-14
3.80344e-13
-3.93596e-14
3.87465e-13
-4.71124e-14
3.94876e-13
-5.43212e-14
4.02591e-13
-6.08935e-14
4.10608e-13
-6.67415e-14
4.18907e-13
-7.17807e-14
4.27452e-13
-7.59291e-14
4.36192e-13
-7.91077e-14
4.4506e-13
-8.12412e-14
4.53976e-13
-8.226e-14
4.62845e-13
-8.21025e-14
4.71562e-13
-8.07176e-14
4.8001e-13
-7.80681e-14
4.88063e-13
-7.41343e-14
4.95589e-13
-6.89176e-14
5.0245e-13
-6.24449e-14
5.08509e-13
-5.47724e-14
5.13632e-13
-4.59896e-14
5.17697e-13
-3.6222e-14
5.20594e-13
-2.56326e-14
5.2224e-13
-1.44203e-14
5.22583e-13
-2.81583e-15
5.21609e-13
8.92943e-15
5.19342e-13
2.05589e-14
5.15843e-13
3.18295e-14
5.11205e-13
4.25267e-14
5.05537e-13
5.24753e-14
4.98962e-13
6.15429e-14
4.91605e-13
6.96384e-14
4.83592e-13
7.6707e-14
4.75042e-13
8.27251e-14
4.66068e-13
8.76933e-14
4.56778e-13
9.16322e-14
4.47269e-13
9.45772e-14
4.37635e-13
9.65764e-14
4.2796e-13
9.76874e-14
4.18322e-13
9.79755e-14
4.0879e-13
9.75122e-14
3.99428e-13
9.63738e-14
3.90291e-13
9.46392e-14
3.81425e-13
9.23895e-14
3.72869e-13
8.97057e-14
3.64656e-13
8.66684e-14
3.5681e-13
8.3356e-14
3.4935e-13
7.98444e-14
3.42288e-13
7.62063e-14
3.3563e-13
7.25103e-14
3.29378e-13
6.88212e-14
3.23529e-13
6.51993e-14
3.18077e-13
6.17006e-14
3.13009e-13
5.83766e-14
3.08312e-13
5.52744e-14
3.03965e-13
5.24368e-14
2.99944e-13
4.99027e-14
2.9622e-13
4.77074e-14
2.92755e-13
4.58825e-14
2.89505e-13
4.44541e-14
2.86414e-13
4.34535e-14
4.29579e-14
2.68234e-13
5.65291e-15
2.72308e-13
1.51868e-14
2.78242e-13
2.24982e-14
2.85429e-13
2.73697e-14
2.9335e-13
2.9785e-14
3.01593e-13
2.98686e-14
3.09861e-13
2.78448e-14
3.17967e-13
2.39982e-14
3.25809e-13
1.8639e-14
3.33361e-13
1.20769e-14
3.40643e-13
4.60437e-15
3.47711e-13
-3.51293e-15
3.5464e-13
-1.20396e-14
3.61509e-13
-2.07699e-14
3.684e-13
-2.95253e-14
3.75387e-13
-3.81496e-14
3.82532e-13
-4.65047e-14
3.89886e-13
-5.44662e-14
3.97484e-13
-6.19193e-14
4.05346e-13
-6.87558e-14
4.13477e-13
-7.48718e-14
4.21863e-13
-8.01669e-14
4.30476e-13
-8.45427e-14
4.39273e-13
-8.79045e-14
4.48193e-13
-9.01613e-14
4.57162e-13
-9.12288e-14
4.6609e-13
-9.1031e-14
4.74877e-13
-8.9504e-14
4.83407e-13
-8.65986e-14
4.91558e-13
-8.22847e-14
4.99195e-13
-7.65551e-14
5.06181e-13
-6.94302e-14
5.12371e-13
-6.0963e-14
5.17626e-13
-5.12445e-14
5.21811e-13
-4.04074e-14
5.24808e-13
-2.86294e-14
5.26521e-13
-1.61333e-14
5.2689e-13
-3.18482e-15
5.25899e-13
9.92027e-15
5.2358e-13
2.28785e-14
5.20006e-13
3.54035e-14
5.15284e-13
4.72483e-14
5.09542e-13
5.82176e-14
5.02914e-13
6.81709e-14
4.95535e-13
7.70172e-14
4.87535e-13
8.47077e-14
4.79033e-13
9.12267e-14
4.70142e-13
9.65839e-14
4.60966e-13
1.00808e-13
4.51601e-13
1.03942e-13
4.42136e-13
1.06042e-13
4.32652e-13
1.07171e-13
4.23225e-13
1.07403e-13
4.13922e-13
1.06815e-13
4.04805e-13
1.05491e-13
3.95927e-13
1.03518e-13
3.87331e-13
1.00985e-13
3.79057e-13
9.798e-14
3.71134e-13
9.45916e-14
3.63585e-13
9.09052e-14
3.56426e-13
8.70031e-14
3.49668e-13
8.2964e-14
3.43317e-13
7.8862e-14
3.37371e-13
7.47667e-14
3.31828e-13
7.07429e-14
3.26678e-13
6.68505e-14
3.21909e-13
6.31449e-14
3.17506e-13
5.96772e-14
3.13449e-13
5.64944e-14
3.09711e-13
5.36401e-14
3.06264e-13
5.1155e-14
3.03069e-13
4.90776e-14
3.00081e-13
4.74413e-14
2.97248e-13
4.62874e-14
4.57122e-14
2.68094e-13
4.22526e-15
2.71839e-13
1.14425e-14
2.77352e-13
1.69849e-14
2.84117e-13
2.0605e-14
2.91679e-13
2.22225e-14
2.99669e-13
2.18791e-14
3.07804e-13
1.97092e-14
3.15892e-13
1.591e-14
3.23817e-13
1.07146e-14
3.31524e-13
4.36931e-15
3.39011e-13
-2.88203e-15
3.46306e-13
-1.08082e-14
3.53462e-13
-1.91959e-14
3.60544e-13
-2.78514e-14
3.67619e-13
-3.66001e-14
3.74753e-13
-4.52836e-14
3.82005e-13
-5.37573e-14
3.89426e-13
-6.1887e-14
3.97053e-13
-6.95459e-14
4.04909e-13
-7.66121e-14
4.13005e-13
-8.29674e-14
4.21333e-13
-8.84955e-14
4.29873e-13
-9.30828e-14
4.38587e-13
-9.66183e-14
4.47421e-13
-9.89956e-14
4.56308e-13
-1.00115e-13
4.65163e-13
-9.98863e-14
4.7389e-13
-9.82315e-14
4.82381e-13
-9.50895e-14
4.90515e-13
-9.04184e-14
4.98161e-13
-8.42011e-14
5.0518e-13
-7.64493e-14
5.11427e-13
-6.72102e-14
5.16755e-13
-5.65727e-14
5.21021e-13
-4.46737e-14
5.24094e-13
-3.17018e-14
5.25862e-13
-1.79019e-14
5.26256e-13
-3.57815e-15
5.25255e-13
1.09212e-14
5.22899e-13
2.52344e-14
5.19279e-13
3.90238e-14
5.14521e-13
5.20057e-14
5.08772e-13
6.3967e-14
5.02179e-13
7.4764e-14
4.94883e-13
8.43125e-14
4.87016e-13
9.25748e-14
4.78696e-13
9.95476e-14
4.70028e-13
1.05252e-13
4.6111e-13
1.09725e-13
4.52033e-13
1.13019e-13
4.42881e-13
1.15195e-13
4.3373e-13
1.16322e-13
4.24654e-13
1.16479e-13
4.15717e-13
1.15751e-13
4.06978e-13
1.1423e-13
3.98488e-13
1.12008e-13
3.9029e-13
1.09183e-13
3.82419e-13
1.05851e-13
3.74904e-13
1.02107e-13
3.67765e-13
9.80443e-14
3.61016e-13
9.37518e-14
3.54666e-13
8.93138e-14
3.48719e-13
8.48098e-14
3.43171e-13
8.03141e-14
3.38019e-13
7.58955e-14
3.33251e-13
7.16179e-14
3.28856e-13
6.75404e-14
3.24815e-13
6.37177e-14
3.21109e-13
6.02007e-14
3.17712e-13
5.70374e-14
3.14593e-13
5.42738e-14
3.11716e-13
5.19545e-14
3.09038e-13
5.01197e-14
3.06505e-13
4.88198e-14
4.8169e-14
2.67963e-13
2.92889e-15
2.71387e-13
8.01869e-15
2.7647e-13
1.19019e-14
2.82768e-13
1.43063e-14
2.89887e-13
1.51035e-14
2.97495e-13
1.42712e-14
3.05332e-13
1.18727e-14
3.13208e-13
8.03425e-15
3.20998e-13
2.92371e-15
3.28636e-13
-3.2685e-15
3.36098e-13
-1.03435e-14
3.43393e-13
-1.8104e-14
3.50558e-13
-2.63603e-14
3.5764e-13
-3.49336e-14
3.64696e-13
-4.36565e-14
3.71785e-13
-5.23722e-14
3.7896e-13
-6.09327e-14
3.86271e-13
-6.91972e-14
3.93754e-13
-7.70292e-14
4.01437e-13
-8.42954e-14
4.09334e-13
-9.08641e-14
4.17443e-13
-9.6605e-14
4.2575e-13
-1.01389e-13
4.34221e-13
-1.0509e-13