/*--------------------------------*- C++ -*----------------------------------*\
  =========                 |
  \\      /  F ield         | OpenFOAM: The Open Source CFD Toolbox
   \\    /   O peration     | Website:  https://openfoam.org
    \\  /    A nd           | Version:  7
     \\/     M anipulation  |
\*---------------------------------------------------------------------------*/
FoamFile
{
    version     2.0;
    format      ascii;
    class       volVectorField;
    location    "25";
    object      U;
}
// * * * * * * * * * * * * * * * * * * * * * * * * * * * * * * * * * * * * * //

dimensions      [0 1 -1 0 0 0 0];

internalField   nonuniform List<vector> 
5625
(
(0.000695108 0.000147141 0)
(0.000593227 0.000127805 0)
(0.000428907 7.49131e-05 0)
(0.000311 4.21617e-05 0)
(0.000241755 2.44076e-05 0)
(0.000198248 1.47513e-05 0)
(0.000168843 9.38496e-06 0)
(0.000148234 6.27546e-06 0)
(0.000133411 4.36188e-06 0)
(0.000122556 3.10524e-06 0)
(0.000114556 2.22962e-06 0)
(0.000108695 1.58859e-06 0)
(0.000104491 1.10031e-06 0)
(0.000101605 7.16686e-07 0)
(9.9789e-05 4.07784e-07 0)
(9.88558e-05 1.54438e-07 0)
(9.86607e-05 -5.63665e-08 0)
(9.90877e-05 -2.33278e-07 0)
(0.000100042 -3.82549e-07 0)
(0.000101442 -5.08213e-07 0)
(0.000103218 -6.13383e-07 0)
(0.000105307 -6.99779e-07 0)
(0.000107649 -7.68939e-07 0)
(0.00011019 -8.21359e-07 0)
(0.000112875 -8.57814e-07 0)
(0.000115653 -8.78193e-07 0)
(0.000118472 -8.83017e-07 0)
(0.000121281 -8.71988e-07 0)
(0.00012403 -8.45741e-07 0)
(0.000126668 -8.04104e-07 0)
(0.000129149 -7.48111e-07 0)
(0.000131427 -6.77953e-07 0)
(0.000133459 -5.95246e-07 0)
(0.000135205 -5.00678e-07 0)
(0.000136633 -3.96508e-07 0)
(0.000137713 -2.8392e-07 0)
(0.000138422 -1.65717e-07 0)
(0.000138745 -4.34162e-08 0)
(0.000138674 7.98837e-08 0)
(0.000138208 2.02612e-07 0)
(0.000137353 3.21722e-07 0)
(0.000136121 4.35921e-07 0)
(0.000134533 5.42547e-07 0)
(0.000132612 6.40838e-07 0)
(0.000130389 7.28743e-07 0)
(0.000127895 8.0615e-07 0)
(0.000125166 8.71692e-07 0)
(0.000122238 9.2588e-07 0)
(0.000119148 9.67982e-07 0)
(0.000115934 9.98997e-07 0)
(0.00011263 1.01871e-06 0)
(0.000109272 1.02843e-06 0)
(0.00010589 1.02833e-06 0)
(0.000102515 1.01988e-06 0)
(9.91731e-05 1.00349e-06 0)
(9.5887e-05 9.80692e-07 0)
(9.26774e-05 9.52035e-07 0)
(8.9561e-05 9.19027e-07 0)
(8.65515e-05 8.82328e-07 0)
(8.36587e-05 8.43396e-07 0)
(8.08893e-05 8.02992e-07 0)
(7.82461e-05 7.62563e-07 0)
(7.57285e-05 7.23041e-07 0)
(7.33317e-05 6.86001e-07 0)
(7.10468e-05 6.52746e-07 0)
(6.88599e-05 6.25357e-07 0)
(6.67512e-05 6.06128e-07 0)
(6.46934e-05 5.98806e-07 0)
(6.26487e-05 6.09001e-07 0)
(6.05621e-05 6.46576e-07 0)
(5.83602e-05 7.27493e-07 0)
(5.59534e-05 8.82406e-07 0)
(5.30937e-05 1.18494e-06 0)
(4.89738e-05 1.74973e-06 0)
(4.38806e-05 2.45178e-06 0)
(0.000985709 0.000289521 0)
(0.000967973 0.000304572 0)
(0.000841195 0.0002166 0)
(0.000708155 0.000145654 0)
(0.000602383 9.82684e-05 0)
(0.00052127 6.74962e-05 0)
(0.000459354 4.751e-05 0)
(0.000412284 3.42361e-05 0)
(0.000376507 2.50969e-05 0)
(0.000349321 1.85547e-05 0)
(0.000328764 1.36991e-05 0)
(0.00031342 9.97947e-06 0)
(0.000302249 7.05284e-06 0)
(0.000294476 4.69833e-06 0)
(0.000289509 2.76986e-06 0)
(0.000286887 1.16757e-06 0)
(0.000286245 -1.77359e-07 0)
(0.000287284 -1.31395e-06 0)
(0.000289752 -2.27625e-06 0)
(0.000293436 -3.08911e-06 0)
(0.000298144 -3.76912e-06 0)
(0.000303705 -4.32866e-06 0)
(0.000309959 -4.77502e-06 0)
(0.000316755 -5.11402e-06 0)
(0.000323946 -5.34812e-06 0)
(0.000331388 -5.48019e-06 0)
(0.000338941 -5.51072e-06 0)
(0.000346468 -5.44207e-06 0)
(0.00035383 -5.27491e-06 0)
(0.000360895 -5.01294e-06 0)
(0.000367534 -4.65862e-06 0)
(0.000373626 -4.21836e-06 0)
(0.000379054 -3.69746e-06 0)
(0.000383716 -3.10574e-06 0)
(0.00038752 -2.45169e-06 0)
(0.00039039 -1.74843e-06 0)
(0.000392265 -1.0071e-06 0)
(0.000393105 -2.43117e-07 0)
(0.000392885 5.31083e-07 0)
(0.000391602 1.29952e-06 0)
(0.000389272 2.05032e-06 0)
(0.000385928 2.76891e-06 0)
(0.000381619 3.44578e-06 0)
(0.00037641 4.06933e-06 0)
(0.000370377 4.63362e-06 0)
(0.000363605 5.13093e-06 0)
(0.000356187 5.55919e-06 0)
(0.000348219 5.9146e-06 0)
(0.0003398 6.19863e-06 0)
(0.000331028 6.41085e-06 0)
(0.000321997 6.55547e-06 0)
(0.000312801 6.63463e-06 0)
(0.000303524 6.65437e-06 0)
(0.000294247 6.61857e-06 0)
(0.00028504 6.53432e-06 0)
(0.000275968 6.40655e-06 0)
(0.000267087 6.24281e-06 0)
(0.000258443 6.04866e-06 0)
(0.000250073 5.83173e-06 0)
(0.000242006 5.59801e-06 0)
(0.00023426 5.35521e-06 0)
(0.000226845 5.10981e-06 0)
(0.000219761 4.86995e-06 0)
(0.000212995 4.64315e-06 0)
(0.000206527 4.4389e-06 0)
(0.000200321 4.26722e-06 0)
(0.000194331 4.14132e-06 0)
(0.000188492 4.07744e-06 0)
(0.00018272 4.09905e-06 0)
(0.000176904 4.23933e-06 0)
(0.000170915 4.54632e-06 0)
(0.000164636 5.09317e-06 0)
(0.000157806 6.01779e-06 0)
(0.000149495 7.46774e-06 0)
(0.00014069 9.00695e-06 0)
(0.00102835 0.000252617 0)
(0.00105548 0.000355679 0)
(0.00100694 0.000316993 0)
(0.000922859 0.000252237 0)
(0.000834496 0.000192773 0)
(0.000754145 0.000145395 0)
(0.000685682 0.000109633 0)
(0.000629446 8.29906e-05 0)
(0.000584257 6.29929e-05 0)
(0.000548526 4.77406e-05 0)
(0.000520733 3.58852e-05 0)
(0.000499569 2.64923e-05 0)
(0.000483955 1.8916e-05 0)
(0.000473012 1.27075e-05 0)
(0.000466028 7.55057e-06 0)
(0.000462419 3.22105e-06 0)
(0.000461701 -4.42761e-07 0)
(0.000463465 -3.55667e-06 0)
(0.000467362 -6.20533e-06 0)
(0.000473082 -8.44843e-06 0)
(0.000480349 -1.03297e-05 0)
(0.000488907 -1.18781e-05 0)
(0.000498517 -1.31151e-05 0)
(0.000508948 -1.4053e-05 0)
(0.00051998 -1.47015e-05 0)
(0.000531392 -1.50651e-05 0)
(0.000542971 -1.51493e-05 0)
(0.000554504 -1.49569e-05 0)
(0.000565782 -1.44948e-05 0)
(0.000576601 -1.37687e-05 0)
(0.000586764 -1.27913e-05 0)
(0.000596083 -1.15749e-05 0)
(0.000604384 -1.01402e-05 0)
(0.000611507 -8.50817e-06 0)
(0.000617314 -6.70863e-06 0)
(0.000621686 -4.77063e-06 0)
(0.000624533 -2.73158e-06 0)
(0.000625788 -6.26093e-07 0)
(0.000625418 1.50461e-06 0)
(0.000623414 3.6248e-06 0)
(0.000619801 5.69449e-06 0)
(0.000614627 7.68188e-06 0)
(0.000607968 9.55311e-06 0)
(0.000599919 1.12845e-05 0)
(0.000590598 1.28515e-05 0)
(0.000580132 1.42408e-05 0)
(0.000568663 1.54385e-05 0)
(0.000556337 1.64415e-05 0)
(0.000543304 1.72457e-05 0)
(0.000529713 1.78569e-05 0)
(0.000515711 1.82789e-05 0)
(0.000501436 1.8524e-05 0)
(0.000487021 1.8602e-05 0)
(0.000472588 1.8529e-05 0)
(0.000458248 1.83187e-05 0)
(0.0004441 1.79897e-05 0)
(0.00043023 1.75577e-05 0)
(0.000416709 1.70422e-05 0)
(0.000403599 1.64602e-05 0)
(0.000390942 1.58318e-05 0)
(0.00037877 1.51747e-05 0)
(0.000367098 1.45096e-05 0)
(0.00035593 1.38557e-05 0)
(0.000345252 1.32354e-05 0)
(0.000335034 1.26711e-05 0)
(0.000325232 1.21896e-05 0)
(0.000315784 1.18201e-05 0)
(0.000306609 1.15994e-05 0)
(0.000297608 1.15713e-05 0)
(0.000288658 1.17919e-05 0)
(0.000279636 1.23266e-05 0)
(0.000270478 1.32509e-05 0)
(0.000261024 1.46478e-05 0)
(0.000250332 1.64882e-05 0)
(0.000239532 1.80844e-05 0)
(0.00102594 0.000195967 0)
(0.0010646 0.000343871 0)
(0.00106417 0.00035866 0)
(0.00102693 0.000320492 0)
(0.000970584 0.00026758 0)
(0.000909112 0.000216132 0)
(0.000850323 0.000171737 0)
(0.000797928 0.000135219 0)
(0.000753252 0.000105683 0)
(0.000716369 8.18417e-05 0)
(0.000686781 6.24913e-05 0)
(0.000663777 4.66438e-05 0)
(0.000646609 3.35315e-05 0)
(0.000634574 2.25715e-05 0)
(0.000627036 1.33274e-05 0)
(0.000623433 5.47192e-06 0)
(0.00062327 -1.23754e-06 0)
(0.000626111 -6.98254e-06 0)
(0.000631561 -1.18956e-05 0)
(0.000639268 -1.6075e-05 0)
(0.000648902 -1.95897e-05 0)
(0.000660154 -2.24901e-05 0)
(0.000672727 -2.48085e-05 0)
(0.000686339 -2.65683e-05 0)
(0.000700704 -2.77823e-05 0)
(0.000715549 -2.84617e-05 0)
(0.000730596 -2.8612e-05 0)
(0.000745575 -2.82428e-05 0)
(0.000760214 -2.73618e-05 0)
(0.000774254 -2.59857e-05 0)
(0.000787436 -2.41322e-05 0)
(0.000799521 -2.18312e-05 0)
(0.000810279 -1.9115e-05 0)
(0.000819508 -1.60304e-05 0)
(0.000827023 -1.26258e-05 0)
(0.000832674 -8.96386e-06 0)
(0.000836339 -5.10658e-06 0)
(0.000837937 -1.1275e-06 0)
(0.000837418 2.90473e-06 0)
(0.000834776 6.91407e-06 0)
(0.000830037 1.08345e-05 0)
(0.000823267 1.45971e-05 0)
(0.000814561 1.81474e-05 0)
(0.000804047 2.14315e-05 0)
(0.00079187 2.44126e-05 0)
(0.0007782 2.70558e-05 0)
(0.000763217 2.93441e-05 0)
(0.000747111 3.12622e-05 0)
(0.000730075 3.28109e-05 0)
(0.000712304 3.39918e-05 0)
(0.000693984 3.48204e-05 0)
(0.000675297 3.53109e-05 0)
(0.000656415 3.5489e-05 0)
(0.000637495 3.53779e-05 0)
(0.000618681 3.50093e-05 0)
(0.000600104 3.44118e-05 0)
(0.000581873 3.36205e-05 0)
(0.000564086 3.2667e-05 0)
(0.00054682 3.15874e-05 0)
(0.000530134 3.04151e-05 0)
(0.000514071 2.9187e-05 0)
(0.000498656 2.79378e-05 0)
(0.000483894 2.67057e-05 0)
(0.000469775 2.55283e-05 0)
(0.000456268 2.44471e-05 0)
(0.000443327 2.35053e-05 0)
(0.000430886 2.27517e-05 0)
(0.000418864 2.22392e-05 0)
(0.000407166 2.20282e-05 0)
(0.000395681 2.21828e-05 0)
(0.000384312 2.27656e-05 0)
(0.000373055 2.38209e-05 0)
(0.000361807 2.53498e-05 0)
(0.000349533 2.71774e-05 0)
(0.000337339 2.8576e-05 0)
(0.00101826 0.000154381 0)
(0.00105492 0.000311937 0)
(0.00107722 0.000361089 0)
(0.00107206 0.000350502 0)
(0.00104536 0.000312978 0)
(0.00100708 0.000266958 0)
(0.000964831 0.000221535 0)
(0.000923487 0.000180459 0)
(0.000885851 0.000144783 0)
(0.000853302 0.000114355 0)
(0.000826341 8.85716e-05 0)
(0.000804965 6.67265e-05 0)
(0.000788916 4.81587e-05 0)
(0.000777805 3.23041e-05 0)
(0.000771205 1.8701e-05 0)
(0.000768679 6.98406e-06 0)
(0.000769805 -3.13361e-06 0)
(0.000774182 -1.18707e-05 0)
(0.000781433 -1.93945e-05 0)
(0.000791195 -2.58272e-05 0)
(0.000803126 -3.126e-05 0)
(0.000816888 -3.57543e-05 0)
(0.000832158 -3.93549e-05 0)
(0.00084861 -4.20876e-05 0)
(0.000865926 -4.39723e-05 0)
(0.000883781 -4.50181e-05 0)
(0.000901859 -4.52367e-05 0)
(0.000919836 -4.46359e-05 0)
(0.000937398 -4.32329e-05 0)
(0.00095423 -4.10465e-05 0)
(0.000970032 -3.81111e-05 0)
(0.000984512 -3.44658e-05 0)
(0.000997403 -3.01694e-05 0)
(0.00100845 -2.52865e-05 0)
(0.00101745 -1.99025e-05 0)
(0.0010242 -1.41066e-05 0)
(0.00102857 -8.00622e-06 0)
(0.00103045 -1.70726e-06 0)
(0.0010298 4.6716e-06 0)
(0.00102658 1.10209e-05 0)
(0.00102086 1.72258e-05 0)
(0.00101268 2.31884e-05 0)
(0.00100219 2.88117e-05 0)
(0.000989518 3.40217e-05 0)
(0.000974853 3.87495e-05 0)
(0.000958392 4.2951e-05 0)
(0.000940356 4.65884e-05 0)
(0.000920968 4.96481e-05 0)
(0.000900462 5.21208e-05 0)
(0.000879066 5.40189e-05 0)
(0.000857009 5.53566e-05 0)
(0.000834503 5.61653e-05 0)
(0.000811755 5.64763e-05 0)
(0.000788952 5.63339e-05 0)
(0.000766269 5.57801e-05 0)
(0.000743857 5.48666e-05 0)
(0.000721853 5.36416e-05 0)
(0.000700371 5.21604e-05 0)
(0.000679505 5.04742e-05 0)
(0.00065933 4.86394e-05 0)
(0.000639898 4.67089e-05 0)
(0.000621243 4.474e-05 0)
(0.000603376 4.27872e-05 0)
(0.000586292 4.09093e-05 0)
(0.000569965 3.91643e-05 0)
(0.000554349 3.76148e-05 0)
(0.000539387 3.63243e-05 0)
(0.000525003 3.53605e-05 0)
(0.000511116 3.47904e-05 0)
(0.000497631 3.46783e-05 0)
(0.000484479 3.50705e-05 0)
(0.000471689 3.5977e-05 0)
(0.000459174 3.73358e-05 0)
(0.000445772 3.89114e-05 0)
(0.000432547 4.00516e-05 0)
(0.00101224 0.000124909 0)
(0.00104338 0.000276201 0)
(0.00107429 0.000343466 0)
(0.0010882 0.00035442 0)
(0.00108384 0.000333397 0)
(0.0010665 0.000297084 0)
(0.00104179 0.000255562 0)
(0.0010142 0.000214296 0)
(0.000986946 0.000175892 0)
(0.000962072 0.000141344 0)
(0.000940764 0.000110808 0)
(0.00092361 8.40456e-05 0)
(0.000910808 6.06699e-05 0)
(0.000902324 4.02632e-05 0)
(0.000897979 2.24388e-05 0)
(0.000897519 6.85955e-06 0)
(0.000900644 -6.75165e-06 0)
(0.000907039 -1.86193e-05 0)
(0.000916375 -2.89157e-05 0)
(0.000928323 -3.7774e-05 0)
(0.000942549 -4.52883e-05 0)
(0.00095872 -5.15279e-05 0)
(0.000976498 -5.65353e-05 0)
(0.000995544 -6.03406e-05 0)
(0.00101551 -6.29577e-05 0)
(0.00103605 -6.43993e-05 0)
(0.00105681 -6.46707e-05 0)
(0.00107743 -6.3786e-05 0)
(0.00109756 -6.17598e-05 0)
(0.00111685 -5.86243e-05 0)
(0.00113495 -5.44184e-05 0)
(0.00115154 -4.92052e-05 0)
(0.0011663 -4.30579e-05 0)
(0.00117895 -3.60778e-05 0)
(0.00118925 -2.83757e-05 0)
(0.00119697 -2.00894e-05 0)
(0.00120196 -1.13609e-05 0)
(0.00120409 -2.35349e-06 0)
(0.0012033 6.77513e-06 0)
(0.00119959 1.5856e-05 0)
(0.00119298 2.4737e-05 0)
(0.00118357 3.32655e-05 0)
(0.0011715 4.13158e-05 0)
(0.00115694 4.87696e-05 0)
(0.0011401 5.55413e-05 0)
(0.00112121 6.1556e-05 0)
(0.00110051 6.67725e-05 0)
(0.00107827 7.11594e-05 0)
(0.00105476 7.47159e-05 0)
(0.00103024 7.7448e-05 0)
(0.00100496 7.93871e-05 0)
(0.000979167 8.05672e-05 0)
(0.000953097 8.10426e-05 0)
(0.000926965 8.08665e-05 0)
(0.000900965 8.0107e-05 0)
(0.000875274 7.88292e-05 0)
(0.000850044 7.71085e-05 0)
(0.000825408 7.50158e-05 0)
(0.000801473 7.26295e-05 0)
(0.000778327 7.0023e-05 0)
(0.000756031 6.7275e-05 0)
(0.000734628 6.44598e-05 0)
(0.000714138 6.16563e-05 0)
(0.00069456 5.89396e-05 0)
(0.000675875 5.63891e-05 0)
(0.000658046 5.40816e-05 0)
(0.000641021 5.20968e-05 0)
(0.000624737 5.05103e-05 0)
(0.000609123 4.93949e-05 0)
(0.000594104 4.88086e-05 0)
(0.000579622 4.87842e-05 0)
(0.000565723 4.93046e-05 0)
(0.000552305 5.02774e-05 0)
(0.000538086 5.14593e-05 0)
(0.000524097 5.23124e-05 0)
(0.0010084 0.000103219 0)
(0.00103419 0.000242151 0)
(0.00106699 0.000316736 0)
(0.0010911 0.00034213 0)
(0.00110189 0.000335129 0)
(0.00110108 0.00030926 0)
(0.001092 0.000274 0)
(0.00107806 0.000235387 0)
(0.00106217 0.000196943 0)
(0.00104648 0.000160538 0)
(0.00103251 0.000127023 0)
(0.00102121 9.66666e-05 0)
(0.00101312 6.94279e-05 0)
(0.00100851 4.51182e-05 0)
(0.00100745 2.34935e-05 0)
(0.00100985 4.30851e-06 0)
(0.00101557 -1.26621e-05 0)
(0.0010244 -2.76074e-05 0)
(0.00103609 -4.06824e-05 0)
(0.00105035 -5.20035e-05 0)
(0.0010669 -6.16586e-05 0)
(0.00108541 -6.97041e-05 0)
(0.00110556 -7.6179e-05 0)
(0.00112701 -8.11002e-05 0)
(0.0011494 -8.44795e-05 0)
(0.00117236 -8.63167e-05 0)
(0.00119552 -8.66183e-05 0)
(0.0012185 -8.53889e-05 0)
(0.00124092 -8.26514e-05 0)
(0.00126239 -7.84353e-05 0)
(0.00128254 -7.27984e-05 0)
(0.001301 -6.58121e-05 0)
(0.00131743 -5.75826e-05 0)
(0.00133151 -4.82321e-05 0)
(0.00134297 -3.79195e-05 0)
(0.00135156 -2.68163e-05 0)
(0.0013571 -1.51256e-05 0)
(0.00135945 -3.05329e-06 0)
(0.00135856 9.17485e-06 0)
(0.00135439 2.13452e-05 0)
(0.001347 3.32391e-05 0)
(0.0013365 4.46656e-05 0)
(0.00132304 5.5442e-05 0)
(0.00130681 6.54244e-05 0)
(0.00128806 7.44847e-05 0)
(0.00126704 8.25382e-05 0)
(0.00124404 8.95166e-05 0)
(0.00121933 9.53932e-05 0)
(0.00119323 0.000100154 0)
(0.00116602 0.000103822 0)
(0.00113798 0.000106425 0)
(0.00110939 0.000108022 0)
(0.0010805 0.000108674 0)
(0.00105155 0.000108463 0)
(0.00102275 0.000107467 0)
(0.000994297 0.000105784 0)
(0.00096636 0.000103503 0)
(0.000939082 0.000100727 0)
(0.000912585 9.75511e-05 0)
(0.000886965 9.40775e-05 0)
(0.000862296 9.0403e-05 0)
(0.000838624 8.66289e-05 0)
(0.00081598 8.28509e-05 0)
(0.000794368 7.9168e-05 0)
(0.000773777 7.56742e-05 0)
(0.000754177 7.2465e-05 0)
(0.000735525 6.96299e-05 0)
(0.000717769 6.72554e-05 0)
(0.000700848 6.54149e-05 0)
(0.000684695 6.4165e-05 0)
(0.000669259 6.3528e-05 0)
(0.000654584 6.3477e-05 0)
(0.000640544 6.39106e-05 0)
(0.000625755 6.46117e-05 0)
(0.000611228 6.51597e-05 0)
(0.00100606 8.66107e-05 0)
(0.00102761 0.000211325 0)
(0.00105948 0.000286544 0)
(0.00108847 0.000320306 0)
(0.00110885 0.000323756 0)
(0.00112011 0.000307191 0)
(0.00112373 0.000278743 0)
(0.0011219 0.000244236 0)
(0.00111686 0.000207534 0)
(0.00111056 0.000171029 0)
(0.00110451 0.000136094 0)
(0.00109984 0.000103438 0)
(0.00109728 7.33647e-05 0)
(0.0010973 4.59381e-05 0)
(0.00110018 2.10987e-05 0)
(0.001106 -1.27314e-06 0)
(0.00111474 -2.13101e-05 0)
(0.00112631 -3.91411e-05 0)
(0.00114054 -5.48724e-05 0)
(0.00115722 -6.859e-05 0)
(0.00117609 -8.0351e-05 0)
(0.00119689 -9.01941e-05 0)
(0.00121929 -9.81335e-05 0)
(0.00124297 -0.000104175 0)
(0.00126757 -0.000108308 0)
(0.00129273 -0.000110527 0)
(0.00131806 -0.000110819 0)
(0.00134317 -0.00010919 0)
(0.00136763 -0.000105652 0)
(0.00139107 -0.000100246 0)
(0.00141305 -9.30285e-05 0)
(0.0014332 -8.40973e-05 0)
(0.00145113 -7.35719e-05 0)
(0.00146651 -6.16182e-05 0)
(0.00147902 -4.84241e-05 0)
(0.00148841 -3.4222e-05 0)
(0.00149446 -1.9258e-05 0)
(0.00149702 -3.81139e-06 0)
(0.00149603 1.18415e-05 0)
(0.00149146 2.74099e-05 0)
(0.00148338 4.26271e-05 0)
(0.00147191 5.72318e-05 0)
(0.00145721 7.10054e-05 0)
(0.00143952 8.37487e-05 0)
(0.00141909 9.53151e-05 0)
(0.00139622 0.000105582 0)
(0.00137121 0.000114481 0)
(0.00134439 0.000121964 0)
(0.00131607 0.000128032 0)
(0.00128658 0.000132698 0)
(0.00125621 0.000136017 0)
(0.00122527 0.00013805 0)
(0.00119403 0.000138887 0)
(0.00116273 0.000138619 0)
(0.00113162 0.000137361 0)
(0.00110089 0.000135221 0)
(0.00107074 0.000132325 0)
(0.00104131 0.00012879 0)
(0.00101274 0.000124746 0)
(0.000985129 0.000120312 0)
(0.000958557 0.000115616 0)
(0.000933083 0.000110775 0)
(0.000908739 0.000105912 0)
(0.000885538 0.000101142 0)
(0.000863475 9.65796e-05 0)
(0.000842528 9.23323e-05 0)
(0.000822661 8.85047e-05 0)
(0.000803829 8.51885e-05 0)
(0.000785978 8.24639e-05 0)
(0.000769044 8.03861e-05 0)
(0.000752975 7.89783e-05 0)
(0.000737804 7.82133e-05 0)
(0.000723378 7.80016e-05 0)
(0.000708244 7.81644e-05 0)
(0.000693389 7.83979e-05 0)
(0.00100464 7.33337e-05 0)
(0.00102298 0.000183754 0)
(0.00105296 0.000255689 0)
(0.00108384 0.000293255 0)
(0.00110994 0.00030368 0)
(0.00112959 0.000294509 0)
(0.00114292 0.000272336 0)
(0.00115109 0.000242353 0)
(0.00115561 0.000208348 0)
(0.00115803 0.000172923 0)
(0.00115971 0.000137766 0)
(0.00116175 0.000103916 0)
(0.00116497 7.19647e-05 0)
(0.00116994 4.22175e-05 0)
(0.00117708 1.48011e-05 0)
(0.00118659 -1.0256e-05 0)
(0.00119858 -3.29793e-05 0)
(0.00121305 -5.341e-05 0)
(0.00122991 -7.15935e-05 0)
(0.00124903 -8.75599e-05 0)
(0.0012702 -0.000101329 0)
(0.00129318 -0.0001129 0)
(0.0013177 -0.000122262 0)
(0.00134345 -0.000129387 0)
(0.00137008 -0.000134248 0)
(0.00139724 -0.000136811 0)
(0.00142453 -0.000137056 0)
(0.00145154 -0.000134967 0)
(0.00147786 -0.000130556 0)
(0.00150305 -0.000123855 0)
(0.0015267 -0.000114935 0)
(0.00154838 -0.000103899 0)
(0.00156769 -9.08996e-05 0)
(0.00158425 -7.61242e-05 0)
(0.00159774 -5.98167e-05 0)
(0.00160786 -4.22485e-05 0)
(0.00161438 -2.37406e-05 0)
(0.00161715 -4.62546e-06 0)
(0.00161608 1.4735e-05 0)
(0.00161116 3.39929e-05 0)
(0.00160246 5.27979e-05 0)
(0.00159012 7.0841e-05 0)
(0.00157433 8.78335e-05 0)
(0.00155534 0.000103547 0)
(0.00153345 0.000117786 0)
(0.00150897 0.000130419 0)
(0.00148225 0.000141347 0)
(0.00145362 0.000150535 0)
(0.00142344 0.000157967 0)
(0.00139204 0.000163683 0)
(0.00135975 0.000167734 0)
(0.00132688 0.000170212 0)
(0.00129372 0.000171216 0)
(0.00126054 0.000170871 0)
(0.00122758 0.000169305 0)
(0.00119505 0.000166663 0)
(0.00116316 0.000163086 0)
(0.00113205 0.000158728 0)
(0.00110188 0.000153735 0)
(0.00107274 0.000148261 0)
(0.00104472 0.000142449 0)
(0.0010179 0.000136448 0)
(0.000992292 0.000130396 0)
(0.000967932 0.000124431 0)
(0.000944814 0.000118684 0)
(0.000922922 0.000113279 0)
(0.000902226 0.00010833 0)
(0.000882685 0.00010394 0)
(0.000864248 0.000100195 0)
(0.000846849 9.71568e-05 0)
(0.000830431 9.4853e-05 0)
(0.000815014 9.327e-05 0)
(0.000800419 9.23379e-05 0)
(0.000785151 9.19263e-05 0)
(0.000770175 9.18376e-05 0)
(0.00100373 6.22827e-05 0)
(0.00101968 0.00015901 0)
(0.00104756 0.000225472 0)
(0.00107873 0.000263634 0)
(0.001108 0.000278107 0)
(0.00113318 0.000274287 0)
(0.00115361 0.000257326 0)
(0.00116961 0.000231621 0)
(0.00118207 0.000200639 0)
(0.00119211 0.000166956 0)
(0.00120082 0.000132398 0)
(0.00120917 9.82023e-05 0)
(0.00121796 6.51783e-05 0)
(0.00122783 3.38279e-05 0)
(0.00123923 4.45296e-06 0)
(0.00125247 -2.2778e-05 0)
(0.00126773 -4.77698e-05 0)
(0.0012851 -7.04729e-05 0)
(0.00130457 -9.08506e-05 0)
(0.00132605 -0.000108875 0)
(0.00134941 -0.000124506 0)
(0.00137445 -0.000137702 0)
(0.00140093 -0.000148405 0)
(0.00142857 -0.00015656 0)
(0.00145703 -0.0001621 0)
(0.00148598 -0.000164972 0)
(0.00151501 -0.000165121 0)
(0.00154373 -0.000162524 0)
(0.0015717 -0.00015717 0)
(0.00159848 -0.000149094 0)
(0.00162363 -0.000138359 0)
(0.00164671 -0.00012509 0)
(0.00166727 -0.00010945 0)
(0.00168493 -9.16713e-05 0)
(0.00169932 -7.20289e-05 0)
(0.00171013 -5.08647e-05 0)
(0.0017171 -2.85512e-05 0)
(0.00172008 -5.51057e-06 0)
(0.00171895 1.78312e-05 0)
(0.00171372 4.103e-05 0)
(0.00170446 6.36748e-05 0)
(0.00169135 8.53705e-05 0)
(0.00167458 0.000105786 0)
(0.00165446 0.000124629 0)
(0.0016313 0.000141685 0)
(0.00160545 0.000156784 0)
(0.00157728 0.000169833 0)
(0.00154716 0.000180774 0)
(0.00151544 0.000189614 0)
(0.0014825 0.000196388 0)
(0.00144868 0.000201177 0)
(0.00141429 0.00020408 0)
(0.00137965 0.000205229 0)
(0.00134502 0.000204764 0)
(0.00131066 0.000202848 0)
(0.00127679 0.000199643 0)
(0.00124361 0.000195328 0)
(0.00121129 0.000190073 0)
(0.00117996 0.000184062 0)
(0.00114975 0.000177465 0)
(0.00112074 0.000170458 0)
(0.00109299 0.000163206 0)
(0.00106656 0.000155876 0)
(0.00104145 0.00014862 0)
(0.00101768 0.000141589 0)
(0.000995224 0.00013492 0)
(0.000974063 0.000128743 0)
(0.000954155 0.000123169 0)
(0.000935449 0.000118295 0)
(0.000917877 0.00011419 0)
(0.000901372 0.000110898 0)
(0.000885939 0.000108422 0)
(0.000871381 0.00010672 0)
(0.000856187 0.000105709 0)
(0.000841293 0.000105295 0)
(0.00100312 5.2783e-05 0)
(0.00101725 0.000136624 0)
(0.00104313 0.000196452 0)
(0.00107372 0.00023304 0)
(0.00110449 0.000249275 0)
(0.00113311 0.000248942 0)
(0.00115847 0.000235965 0)
(0.00118033 0.000213937 0)
(0.00119908 0.000185884 0)
(0.00121542 0.000154208 0)
(0.00123016 0.000120731 0)
(0.00124411 8.67839e-05 0)
(0.00125799 5.33076e-05 0)
(0.00127239 2.09552e-05 0)
(0.0012878 -9.83274e-06 0)
(0.00130457 -3.87552e-05 0)
(0.00132295 -6.5609e-05 0)
(0.00134306 -9.02432e-05 0)
(0.00136498 -0.000112544 0)
(0.00138867 -0.000132405 0)
(0.00141404 -0.000149733 0)
(0.00144094 -0.000164423 0)
(0.00146918 -0.000176378 0)
(0.00149848 -0.000185489 0)
(0.00152855 -0.00019166 0)
(0.00155905 -0.000194791 0)
(0.00158962 -0.000194811 0)
(0.00161982 -0.000191657 0)
(0.00164925 -0.000185314 0)
(0.00167744 -0.00017579 0)
(0.00170393 -0.000163161 0)
(0.00172826 -0.000147542 0)
(0.00174997 -0.000129132 0)
(0.00176864 -0.000108178 0)
(0.00178388 -8.50167e-05 0)
(0.00179533 -6.0033e-05 0)
(0.00180275 -3.36872e-05 0)
(0.00180591 -6.46828e-06 0)
(0.00180475 2.10927e-05 0)
(0.00179925 4.84779e-05 0)
(0.0017895 7.51731e-05 0)
(0.00177569 0.000100724 0)
(0.00175808 0.000124718 0)
(0.00173698 0.000146831 0)
(0.00171274 0.000166797 0)
(0.00168574 0.000184443 0)
(0.00165639 0.000199649 0)
(0.00162506 0.000212375 0)
(0.00159215 0.00022262 0)
(0.00155803 0.000230449 0)
(0.00152306 0.000235946 0)
(0.00148756 0.000239246 0)
(0.00145185 0.000240492 0)
(0.00141621 0.000239862 0)
(0.00138089 0.000237535 0)
(0.00134613 0.000233713 0)
(0.00131212 0.00022859 0)
(0.00127903 0.000222376 0)
(0.001247 0.000215272 0)
(0.00121616 0.000207484 0)
(0.00118659 0.000199204 0)
(0.00115835 0.000190628 0)
(0.0011315 0.000181938 0)
(0.00110604 0.000173311 0)
(0.001082 0.000164911 0)
(0.00105935 0.000156894 0)
(0.00103807 0.0001494 0)
(0.00101812 0.000142556 0)
(0.00099944 0.000136468 0)
(0.000981967 0.000131222 0)
(0.00096562 0.000126875 0)
(0.000950391 0.000123455 0)
(0.00093607 0.000120951 0)
(0.000921154 0.000119328 0)
(0.000906545 0.000118586 0)
(0.00100269 4.44212e-05 0)
(0.00101538 0.000116206 0)
(0.00103941 0.000168849 0)
(0.00106897 0.000202445 0)
(0.00110014 0.000218734 0)
(0.00113068 0.000220325 0)
(0.00115925 0.000210142 0)
(0.00118527 0.000191041 0)
(0.00120875 0.000165578 0)
(0.00123004 0.000135899 0)
(0.00124971 0.000103726 0)
(0.00126836 7.03934e-05 0)
(0.0012866 3.69097e-05 0)
(0.00130497 4.02023e-06 0)
(0.00132394 -2.77239e-05 0)
(0.00134387 -5.79196e-05 0)
(0.00136503 -8.62589e-05 0)
(0.00138761 -0.000112505 0)
(0.00141171 -0.000136455 0)
(0.00143734 -0.000157938 0)
(0.00146446 -0.000176784 0)
(0.00149297 -0.000192838 0)
(0.00152268 -0.000205939 0)
(0.00155339 -0.000215937 0)
(0.0015848 -0.000222681 0)
(0.00161661 -0.000226039 0)
(0.00164844 -0.000225893 0)
(0.0016799 -0.00022216 0)
(0.00171056 -0.000214786 0)
(0.00173996 -0.000203776 0)
(0.00176761 -0.000189183 0)
(0.00179305 -0.000171139 0)
(0.0018158 -0.00014984 0)
(0.00183539 -0.00012558 0)
(0.0018514 -9.87236e-05 0)
(0.00186348 -6.97339e-05 0)
(0.0018713 -3.91325e-05 0)
(0.00187467 -7.51604e-06 0)
(0.00187348 2.45008e-05 0)
(0.00186774 5.62808e-05 0)
(0.00185756 8.72303e-05 0)
(0.00184315 0.000116792 0)
(0.0018248 0.000144504 0)
(0.00180287 0.000169974 0)
(0.00177775 0.000192922 0)
(0.00174984 0.000213139 0)
(0.00171957 0.00023052 0)
(0.00168735 0.000245012 0)
(0.00165359 0.000256646 0)
(0.00161866 0.000265484 0)
(0.00158293 0.000271651 0)
(0.00154673 0.000275289 0)
(0.00151038 0.000276583 0)
(0.00147417 0.000275722 0)
(0.00143834 0.000272928 0)
(0.00140313 0.000268418 0)
(0.00136874 0.000262429 0)
(0.00133533 0.000255187 0)
(0.00130305 0.000246929 0)
(0.00127201 0.00023788 0)
(0.0012423 0.000228265 0)
(0.00121399 0.000218297 0)
(0.00118712 0.000208184 0)
(0.00116171 0.000198117 0)
(0.00113776 0.000188284 0)
(0.00111527 0.000178851 0)
(0.0010942 0.000169977 0)
(0.00107451 0.000161799 0)
(0.00105614 0.00015444 0)
(0.00103903 0.000147999 0)
(0.00102307 0.000142555 0)
(0.00100826 0.000138161 0)
(0.000994371 0.000134839 0)
(0.000979936 0.000132599 0)
(0.000965811 0.000131531 0)
(0.00100237 3.69391e-05 0)
(0.00101388 9.7469e-05 0)
(0.0010362 0.000142744 0)
(0.00106447 0.000172453 0)
(0.00109532 0.000187569 0)
(0.00112665 0.000189839 0)
(0.00115708 0.000181396 0)
(0.00118583 0.000164461 0)
(0.00121263 0.000141133 0)
(0.0012376 0.000113269 0)
(0.00126104 8.24338e-05 0)
(0.00128341 4.99067e-05 0)
(0.00130519 1.6702e-05 0)
(0.00132683 -1.63823e-05 0)
(0.00134877 -4.87277e-05 0)
(0.00137134 -7.98453e-05 0)
(0.00139484 -0.000109349 0)
(0.00141948 -0.000136914 0)
(0.00144537 -0.000162269 0)
(0.00147259 -0.00018516 0)
(0.00150112 -0.000205361 0)
(0.00153088 -0.000222644 0)
(0.00156175 -0.000236797 0)
(0.00159353 -0.000247608 0)
(0.00162597 -0.000254883 0)
(0.00165877 -0.000258434 0)
(0.00169158 -0.00025811 0)
(0.00172402 -0.00025378 0)
(0.00175565 -0.000245369 0)
(0.00178602 -0.000232847 0)
(0.00181464 -0.000216263 0)
(0.00184102 -0.000195732 0)
(0.00186466 -0.000171472 0)
(0.00188506 -0.000143789 0)
(0.00190179 -0.000113105 0)
(0.00191442 -7.993e-05 0)
(0.00192264 -4.48856e-05 0)
(0.00192621 -8.65318e-06 0)
(0.00192502 2.80221e-05 0)
(0.00191907 6.44029e-05 0)
(0.00190851 9.97682e-05 0)
(0.00189358 0.000133485 0)
(0.00187462 0.000165 0)
(0.00185203 0.000193892 0)
(0.00182623 0.000219832 0)
(0.00179766 0.000242622 0)
(0.00176678 0.000262138 0)
(0.001734 0.00027836 0)
(0.00169975 0.000291317 0)
(0.0016644 0.000301112 0)
(0.00162832 0.000307875 0)
(0.00159186 0.000311792 0)
(0.00155531 0.000313058 0)
(0.00151897 0.000311906 0)
(0.00148308 0.000308573 0)
(0.00144788 0.000303317 0)
(0.00141355 0.000296392 0)
(0.00138027 0.000288065 0)
(0.00134818 0.00027859 0)
(0.00131738 0.000268228 0)
(0.00128796 0.000257221 0)
(0.00125998 0.000245811 0)
(0.00123349 0.000234221 0)
(0.0012085 0.000222669 0)
(0.00118501 0.000211353 0)
(0.00116301 0.000200461 0)
(0.00114246 0.000190161 0)
(0.00112333 0.000180611 0)
(0.00110555 0.000171944 0)
(0.00108903 0.000164281 0)
(0.0010737 0.000157719 0)
(0.00105951 0.00015234 0)
(0.00104624 0.000148195 0)
(0.00103249 0.000145341 0)
(0.00101904 0.00014395 0)
(0.00100211 3.0173e-05 0)
(0.00101262 8.02109e-05 0)
(0.00103334 0.000118164 0)
(0.00106016 0.000143463 0)
(0.00109016 0.000156556 0)
(0.00112146 0.000158555 0)
(0.00115269 0.000150975 0)
(0.00118297 0.000135504 0)
(0.00121188 0.000113826 0)
(0.00123933 8.75037e-05 0)
(0.00126546 5.7922e-05 0)
(0.00129055 2.62591e-05 0)
(0.00131497 -6.49996e-06 0)
(0.0013391 -3.95499e-05 0)
(0.00136331 -7.22281e-05 0)
(0.00138792 -0.000103994 0)
(0.0014132 -0.00013439 0)
(0.00143938 -0.00016303 0)
(0.00146661 -0.000189565 0)
(0.00149497 -0.000213682 0)
(0.00152447 -0.000235079 0)
(0.00155509 -0.000253475 0)
(0.00158671 -0.000268587 0)
(0.00161918 -0.000280156 0)
(0.00165226 -0.000287921 0)
(0.00168569 -0.000291655 0)
(0.00171913 -0.000291146 0)
(0.00175221 -0.000286233 0)
(0.00178451 -0.000276791 0)
(0.00181557 -0.000262772 0)
(0.0018449 -0.000244188 0)
(0.00187201 -0.000221158 0)
(0.00189636 -0.000193888 0)
(0.00191745 -0.000162715 0)
(0.00193478 -0.000128087 0)
(0.00194793 -9.05921e-05 0)
(0.00195651 -5.09241e-05 0)
(0.00196027 -9.89263e-06 0)
(0.00195908 3.16422e-05 0)
(0.00195296 7.27913e-05 0)
(0.00194208 0.000112724 0)
(0.00192673 0.000150685 0)
(0.00190729 0.000186065 0)
(0.00188422 0.000218376 0)
(0.00185798 0.000247292 0)
(0.00182905 0.000272591 0)
(0.00179789 0.000294183 0)
(0.00176493 0.000312045 0)
(0.00173059 0.00032625 0)
(0.00169525 0.000336908 0)
(0.00165927 0.000344195 0)
(0.00162299 0.000348303 0)
(0.00158671 0.000349473 0)
(0.00155071 0.000347952 0)
(0.00151523 0.000344018 0)
(0.00148049 0.000337947 0)
(0.00144669 0.000330033 0)
(0.00141399 0.000320561 0)
(0.00138253 0.000309824 0)
(0.0013524 0.000298098 0)
(0.00132368 0.00028566 0)
(0.00129645 0.000272767 0)
(0.00127072 0.000259671 0)
(0.00124651 0.0002466 0)
(0.00122383 0.000233776 0)
(0.00120265 0.000221399 0)
(0.00118293 0.000209656 0)
(0.00116464 0.000198714 0)
(0.0011477 0.000188729 0)
(0.00113203 0.000179834 0)
(0.00111754 0.000172154 0)
(0.00110417 0.000165792 0)
(0.00109172 0.000160833 0)
(0.00107883 0.000157375 0)
(0.00106626 0.000155669 0)
(0.0010019 2.40184e-05 0)
(0.0010115 6.42976e-05 0)
(0.00103071 9.51257e-05 0)
(0.00105596 0.000115758 0)
(0.00108474 0.000126268 0)
(0.00111537 0.000127302 0)
(0.00114655 0.000119889 0)
(0.00117738 0.000105278 0)
(0.00120734 8.47868e-05 0)
(0.00123621 5.97054e-05 0)
(0.00126398 3.12222e-05 0)
(0.00129083 3.99862e-07 0)
(0.001317 -3.18419e-05 0)
(0.00134279 -6.47107e-05 0)
(0.00136852 -9.75355e-05 0)