/*--------------------------------*- C++ -*----------------------------------*\
  =========                 |
  \\      /  F ield         | OpenFOAM: The Open Source CFD Toolbox
   \\    /   O peration     | Website:  https://openfoam.org
    \\  /    A nd           | Version:  7
     \\/     M anipulation  |
\*---------------------------------------------------------------------------*/
FoamFile
{
    version     2.0;
    format      ascii;
    class       volScalarField;
    location    "6";
    object      gradTx;
}
// * * * * * * * * * * * * * * * * * * * * * * * * * * * * * * * * * * * * * //

dimensions      [0 -1 0 1 0 0 0];

internalField   nonuniform List<scalar> 5(777.669 780.489 792.964 815.049 833.829);

boundaryField
{
    left
    {
        type            calculated;
        value           uniform 777.814;
    }
    right
    {
        type            calculated;
        value           uniform 840.036;
    }
    empty
    {
        type            empty;
    }
}


// ************************************************************************* //
