# Field minima and maxima
# Time        	field         	min           	location(min) 	processor     	max           	location(max) 	processor     
1.2e-09       	T             	7.727921e+02	(5.000000e-07 2.995000e-04 5.000000e-07)	21	7.730000e+02	(4.205000e-04 1.695000e-04 5.000000e-07)	8
2.64e-09      	T             	7.726234e+02	(5.000000e-07 2.995000e-04 5.000000e-07)	21	7.730000e+02	(3.025000e-04 1.985000e-04 5.000000e-07)	12
4.367999e-09  	T             	7.724959e+02	(5.000000e-07 2.995000e-04 5.000000e-07)	21	7.730000e+02	(3.705000e-04 1.500000e-06 5.000000e-07)	3
6.441599e-09  	T             	7.723950e+02	(5.000000e-07 5.000000e-07 5.000000e-07)	16	7.730000e+02	(4.805000e-04 9.550000e-05 5.000000e-07)	38
8.929917e-09  	T             	7.723045e+02	(5.000000e-07 5.000000e-07 5.000000e-07)	16	7.730000e+02	(7.245000e-04 1.445000e-04 5.000000e-07)	53
1.19159e-08   	T             	7.722167e+02	(5.000000e-07 5.000000e-07 5.000000e-07)	16	7.730000e+02	(1.485000e-04 9.750000e-05 5.000000e-07)	24
1.549908e-08  	T             	7.721324e+02	(5.000000e-07 5.000000e-07 5.000000e-07)	16	7.730000e+02	(1.485000e-04 9.750000e-05 5.000000e-07)	24
1.979889e-08  	T             	7.720570e+02	(5.000000e-07 5.000000e-07 5.000000e-07)	16	7.730000e+02	(6.455000e-04 2.365000e-04 5.000000e-07)	48
2.495867e-08  	T             	7.719967e+02	(5.000000e-07 5.000000e-07 5.000000e-07)	16	7.730000e+02	(1.485000e-04 9.850000e-05 5.000000e-07)	24
3.115039e-08  	T             	7.719568e+02	(5.000000e-07 5.000000e-07 5.000000e-07)	16	7.730000e+02	(5.955000e-04 1.365000e-04 5.000000e-07)	43
3.858047e-08  	T             	7.719389e+02	(5.000000e-07 4.050000e-05 5.000000e-07)	16	7.730000e+02	(5.955000e-04 1.365000e-04 5.000000e-07)	43
4.749654e-08  	T             	7.719305e+02	(5.000000e-07 5.150000e-05 5.000000e-07)	16	7.730000e+02	(5.955000e-04 1.325000e-04 5.000000e-07)	43
5.819583e-08  	T             	7.719286e+02	(5.000000e-07 5.950000e-05 5.000000e-07)	16	7.730000e+02	(6.885000e-04 2.625000e-04 5.000000e-07)	48
7.103497e-08  	T             	7.719415e+02	(5.000000e-07 6.150000e-05 5.000000e-07)	16	7.730000e+02	(6.885000e-04 2.625000e-04 5.000000e-07)	48
8.644192e-08  	T             	7.719009e+02	(1.500000e-06 6.150000e-05 5.000000e-07)	16	7.730000e+02	(6.885000e-04 2.625000e-04 5.000000e-07)	48
1.049303e-07  	T             	7.718236e+02	(1.500000e-06 6.150000e-05 5.000000e-07)	16	7.730000e+02	(6.885000e-04 2.625000e-04 5.000000e-07)	48
1.271163e-07  	T             	7.718017e+02	(1.500000e-06 5.950000e-05 5.000000e-07)	16	7.730000e+02	(6.885000e-04 2.625000e-04 5.000000e-07)	48
1.537394e-07  	T             	7.718179e+02	(1.500000e-06 4.650000e-05 5.000000e-07)	16	7.730000e+02	(6.885000e-04 2.625000e-04 5.000000e-07)	48
1.856872e-07  	T             	7.718386e+02	(1.500000e-06 2.500000e-06 5.000000e-07)	16	7.730000e+02	(6.885000e-04 2.625000e-04 5.000000e-07)	48
2.240245e-07  	T             	7.718942e+02	(1.500000e-06 2.500000e-06 5.000000e-07)	16	7.730000e+02	(6.885000e-04 2.625000e-04 5.000000e-07)	48
2.70029e-07   	T             	7.718958e+02	(2.500000e-06 1.395000e-04 5.000000e-07)	19	7.730000e+02	(6.885000e-04 2.625000e-04 5.000000e-07)	48
3.252343e-07  	T             	7.718482e+02	(2.500000e-06 1.785000e-04 5.000000e-07)	20	7.730018e+02	(2.350000e-05 1.450000e-05 5.000000e-07)	16
3.914806e-07  	T             	7.718416e+02	(2.500000e-06 1.925000e-04 5.000000e-07)	20	7.730009e+02	(2.350000e-05 1.450000e-05 5.000000e-07)	16
4.709757e-07  	T             	7.718494e+02	(2.500000e-06 2.955000e-04 5.000000e-07)	21	7.730000e+02	(1.455000e-04 9.450000e-05 5.000000e-07)	24
5.663692e-07  	T             	7.718428e+02	(3.500000e-06 2.955000e-04 5.000000e-07)	21	7.730000e+02	(1.455000e-04 9.450000e-05 5.000000e-07)	24
6.808408e-07  	T             	7.718543e+02	(3.500000e-06 2.955000e-04 5.000000e-07)	21	7.730000e+02	(6.885000e-04 2.625000e-04 5.000000e-07)	48
8.182054e-07  	T             	7.718747e+02	(3.500000e-06 5.500000e-06 5.000000e-07)	16	7.730000e+02	(6.885000e-04 2.625000e-04 5.000000e-07)	48
9.830424e-07  	T             	7.718676e+02	(4.500000e-06 5.500000e-06 5.000000e-07)	16	7.730000e+02	(6.885000e-04 2.625000e-04 5.000000e-07)	48
1.180847e-06  	T             	7.718709e+02	(4.500000e-06 6.500000e-06 5.000000e-07)	16	7.730000e+02	(1.455000e-04 9.450000e-05 5.000000e-07)	24
1.418208e-06  	T             	7.718836e+02	(5.500000e-06 7.500000e-06 5.000000e-07)	16	7.730001e+02	(1.455000e-04 9.450000e-05 5.000000e-07)	24
1.703035e-06  	T             	7.718845e+02	(5.500000e-06 8.500000e-06 5.000000e-07)	16	7.730001e+02	(1.455000e-04 9.450000e-05 5.000000e-07)	24
2.044822e-06  	T             	7.718798e+02	(6.500000e-06 2.915000e-04 5.000000e-07)	21	7.730038e+02	(2.050000e-05 1.715000e-04 5.000000e-07)	19
2.454961e-06  	T             	7.718735e+02	(6.500000e-06 2.905000e-04 5.000000e-07)	21	7.730135e+02	(2.050000e-05 1.715000e-04 5.000000e-07)	19
2.947111e-06  	T             	7.718708e+02	(7.500000e-06 2.905000e-04 5.000000e-07)	21	7.730347e+02	(2.050000e-05 1.715000e-04 5.000000e-07)	19
3.537675e-06  	T             	7.718746e+02	(8.500000e-06 2.895000e-04 5.000000e-07)	21	7.730764e+02	(2.050000e-05 1.715000e-04 5.000000e-07)	19
4.246342e-06  	T             	7.718808e+02	(9.500000e-06 2.885000e-04 5.000000e-07)	21	7.731507e+02	(2.050000e-05 1.725000e-04 5.000000e-07)	19
5.096683e-06  	T             	7.718855e+02	(9.500000e-06 2.865000e-04 5.000000e-07)	21	7.732720e+02	(2.050000e-05 1.725000e-04 5.000000e-07)	19
6.117091e-06  	T             	7.718937e+02	(1.050000e-05 2.845000e-04 5.000000e-07)	21	7.734552e+02	(2.050000e-05 1.735000e-04 5.000000e-07)	20
7.341532e-06  	T             	7.719050e+02	(1.150000e-05 2.525000e-04 5.000000e-07)	21	7.737129e+02	(2.050000e-05 8.150000e-05 5.000000e-07)	16
8.810824e-06  	T             	7.719193e+02	(1.250000e-05 2.475000e-04 5.000000e-07)	21	7.740535e+02	(2.050000e-05 7.950000e-05 5.000000e-07)	16
1.057387e-05  	T             	7.719366e+02	(1.450000e-05 2.455000e-04 5.000000e-07)	21	7.744791e+02	(2.050000e-05 7.650000e-05 5.000000e-07)	16
1.268938e-05  	T             	7.719579e+02	(1.550000e-05 2.455000e-04 5.000000e-07)	21	7.749853e+02	(2.050000e-05 7.250000e-05 5.000000e-07)	16
1.522745e-05  	T             	7.719849e+02	(1.650000e-05 2.465000e-04 5.000000e-07)	21	7.755614e+02	(2.050000e-05 6.950000e-05 5.000000e-07)	16
1.827252e-05  	T             	7.720177e+02	(1.850000e-05 2.465000e-04 5.000000e-07)	21	7.761914e+02	(2.050000e-05 6.650000e-05 5.000000e-07)	16
2.192615e-05  	T             	7.719539e+02	(2.350000e-05 1.905000e-04 5.000000e-07)	20	7.768550e+02	(2.050000e-05 6.450000e-05 5.000000e-07)	16
2.631019e-05  	T             	7.717803e+02	(2.450000e-05 1.895000e-04 5.000000e-07)	20	7.775285e+02	(2.050000e-05 6.350000e-05 5.000000e-07)	16
3.157057e-05  	T             	7.716010e+02	(2.450000e-05 1.895000e-04 5.000000e-07)	20	7.781860e+02	(2.050000e-05 6.250000e-05 5.000000e-07)	16
3.787971e-05  	T             	7.714814e+02	(2.450000e-05 1.885000e-04 5.000000e-07)	20	7.788014e+02	(2.050000e-05 6.250000e-05 5.000000e-07)	16
4.544971e-05  	T             	7.713264e+02	(2.550000e-05 1.845000e-04 5.000000e-07)	20	7.793514e+02	(2.050000e-05 6.250000e-05 5.000000e-07)	16
5.453233e-05  	T             	7.711263e+02	(2.650000e-05 1.825000e-04 5.000000e-07)	20	7.807183e+02	(2.050000e-05 3.500000e-06 5.000000e-07)	16
6.452777e-05  	T             	7.709278e+02	(2.650000e-05 1.815000e-04 5.000000e-07)	20	7.829085e+02	(2.050000e-05 3.500000e-06 5.000000e-07)	16
7.452322e-05  	T             	7.707749e+02	(2.750000e-05 1.795000e-04 5.000000e-07)	20	7.851808e+02	(2.050000e-05 3.500000e-06 5.000000e-07)	16
8.451866e-05  	T             	7.705923e+02	(2.850000e-05 1.695000e-04 5.000000e-07)	19	7.875265e+02	(2.050000e-05 3.500000e-06 5.000000e-07)	16
9.451411e-05  	T             	7.704406e+02	(2.850000e-05 1.695000e-04 5.000000e-07)	19	7.899411e+02	(2.050000e-05 3.500000e-06 5.000000e-07)	16
0.0001045096  	T             	7.703358e+02	(2.850000e-05 1.705000e-04 5.000000e-07)	19	7.924411e+02	(2.050000e-05 2.500000e-06 5.000000e-07)	16
0.000114505   	T             	7.702727e+02	(2.850000e-05 1.705000e-04 5.000000e-07)	19	7.950419e+02	(2.050000e-05 2.500000e-06 5.000000e-07)	16
0.0001245004  	T             	7.702473e+02	(2.850000e-05 1.705000e-04 5.000000e-07)	19	7.977224e+02	(2.050000e-05 2.500000e-06 5.000000e-07)	16
0.0001344959  	T             	7.702545e+02	(2.850000e-05 1.705000e-04 5.000000e-07)	19	8.004866e+02	(2.050000e-05 2.500000e-06 5.000000e-07)	16
0.0001444913  	T             	7.702897e+02	(2.850000e-05 1.705000e-04 5.000000e-07)	19	8.033443e+02	(2.050000e-05 1.500000e-06 5.000000e-07)	16
0.0001544868  	T             	7.703489e+02	(2.850000e-05 1.705000e-04 5.000000e-07)	19	8.063352e+02	(2.050000e-05 1.500000e-06 5.000000e-07)	16
0.0001644822  	T             	7.704283e+02	(2.850000e-05 1.705000e-04 5.000000e-07)	19	8.094347e+02	(2.050000e-05 1.500000e-06 5.000000e-07)	16
0.0001744777  	T             	7.705248e+02	(2.850000e-05 1.705000e-04 5.000000e-07)	19	8.126536e+02	(2.050000e-05 1.500000e-06 5.000000e-07)	16
0.0001844731  	T             	7.706355e+02	(2.850000e-05 1.705000e-04 5.000000e-07)	19	8.160048e+02	(2.050000e-05 1.500000e-06 5.000000e-07)	16
0.0001944686  	T             	7.707581e+02	(2.850000e-05 1.705000e-04 5.000000e-07)	19	8.195041e+02	(2.050000e-05 1.500000e-06 5.000000e-07)	16
0.000204464   	T             	7.708906e+02	(2.850000e-05 1.705000e-04 5.000000e-07)	19	8.231873e+02	(2.050000e-05 5.000000e-07 5.000000e-07)	16
0.0002144594  	T             	7.710311e+02	(2.850000e-05 1.705000e-04 5.000000e-07)	19	8.270596e+02	(2.050000e-05 5.000000e-07 5.000000e-07)	16
0.0002244549  	T             	7.711781e+02	(2.850000e-05 1.705000e-04 5.000000e-07)	19	8.311461e+02	(2.050000e-05 5.000000e-07 5.000000e-07)	16
0.0002344503  	T             	7.711738e+02	(3.450000e-05 1.005000e-04 5.000000e-07)	19	8.354780e+02	(2.050000e-05 5.000000e-07 5.000000e-07)	16
0.0002444458  	T             	7.711606e+02	(3.550000e-05 1.005000e-04 5.000000e-07)	19	8.400924e+02	(2.050000e-05 5.000000e-07 5.000000e-07)	16
0.0002544412  	T             	7.711484e+02	(3.550000e-05 1.005000e-04 5.000000e-07)	19	8.450336e+02	(2.050000e-05 5.000000e-07 5.000000e-07)	16
0.0002644367  	T             	7.711390e+02	(3.550000e-05 9.950000e-05 5.000000e-07)	19	8.503551e+02	(2.050000e-05 5.000000e-07 5.000000e-07)	16
0.0002744321  	T             	7.711283e+02	(3.650000e-05 1.005000e-04 5.000000e-07)	19	8.561212e+02	(2.050000e-05 5.000000e-07 5.000000e-07)	16
0.0002844276  	T             	7.711175e+02	(3.650000e-05 9.950000e-05 5.000000e-07)	19	8.624088e+02	(2.050000e-05 5.000000e-07 5.000000e-07)	16
0.000294423   	T             	7.711092e+02	(3.650000e-05 9.950000e-05 5.000000e-07)	19	8.693105e+02	(2.050000e-05 5.000000e-07 5.000000e-07)	16
0.0003044184  	T             	7.711016e+02	(3.750000e-05 9.950000e-05 5.000000e-07)	19	8.769357e+02	(2.050000e-05 5.000000e-07 5.000000e-07)	16
0.0003144139  	T             	7.710930e+02	(3.750000e-05 9.950000e-05 5.000000e-07)	19	8.854105e+02	(2.050000e-05 5.000000e-07 5.000000e-07)	16
0.0003244093  	T             	7.710874e+02	(3.750000e-05 9.950000e-05 5.000000e-07)	19	8.948724e+02	(2.050000e-05 5.000000e-07 5.000000e-07)	16
0.0003344048  	T             	7.710821e+02	(3.750000e-05 9.850000e-05 5.000000e-07)	19	9.055186e+02	(2.050000e-05 1.500000e-06 5.000000e-07)	16
0.0003444002  	T             	7.710764e+02	(3.850000e-05 9.850000e-05 5.000000e-07)	19	9.174525e+02	(2.050000e-05 1.500000e-06 5.000000e-07)	16
0.0003543957  	T             	7.710705e+02	(3.850000e-05 9.850000e-05 5.000000e-07)	19	9.307045e+02	(2.050000e-05 1.500000e-06 5.000000e-07)	16
0.0003643911  	T             	7.710671e+02	(3.850000e-05 9.850000e-05 5.000000e-07)	19	9.451829e+02	(2.050000e-05 1.500000e-06 5.000000e-07)	16
0.0003743866  	T             	7.710652e+02	(3.950000e-05 9.850000e-05 5.000000e-07)	19	9.608416e+02	(2.050000e-05 2.500000e-06 5.000000e-07)	16
0.000384382   	T             	7.710617e+02	(3.950000e-05 9.850000e-05 5.000000e-07)	19	9.773658e+02	(2.050000e-05 2.500000e-06 5.000000e-07)	16
0.0003943775  	T             	7.710599e+02	(3.950000e-05 9.750000e-05 5.000000e-07)	19	9.939957e+02	(2.050000e-05 2.500000e-06 5.000000e-07)	16
0.0004043729  	T             	7.710583e+02	(3.950000e-05 9.750000e-05 5.000000e-07)	19	1.010860e+03	(2.050000e-05 3.500000e-06 5.000000e-07)	16
0.0004143683  	T             	7.710587e+02	(3.950000e-05 9.750000e-05 5.000000e-07)	19	1.027265e+03	(2.050000e-05 3.500000e-06 5.000000e-07)	16
0.0004243638  	T             	7.710584e+02	(4.050000e-05 9.750000e-05 5.000000e-07)	19	1.042574e+03	(2.050000e-05 3.500000e-06 5.000000e-07)	16
0.0004343592  	T             	7.710587e+02	(4.050000e-05 9.750000e-05 5.000000e-07)	19	1.057344e+03	(2.050000e-05 4.500000e-06 5.000000e-07)	16
0.0004443547  	T             	7.710608e+02	(4.050000e-05 9.750000e-05 5.000000e-07)	19	1.070970e+03	(2.050000e-05 4.500000e-06 5.000000e-07)	16
0.0004543501  	T             	7.710629e+02	(4.050000e-05 9.650000e-05 5.000000e-07)	19	1.083196e+03	(2.050000e-05 4.500000e-06 5.000000e-07)	16
0.0004643456  	T             	7.710666e+02	(4.050000e-05 9.650000e-05 5.000000e-07)	19	1.094145e+03	(2.050000e-05 4.500000e-06 5.000000e-07)	16
0.000474341   	T             	7.710689e+02	(4.150000e-05 9.650000e-05 5.000000e-07)	19	1.103946e+03	(2.050000e-05 4.500000e-06 5.000000e-07)	16
0.0004843365  	T             	7.710725e+02	(4.150000e-05 9.650000e-05 5.000000e-07)	19	1.112743e+03	(2.050000e-05 4.500000e-06 5.000000e-07)	16
0.0004943319  	T             	7.710777e+02	(4.150000e-05 9.650000e-05 5.000000e-07)	19	1.120667e+03	(2.050000e-05 4.500000e-06 5.000000e-07)	16
0.0005043273  	T             	7.710838e+02	(4.150000e-05 9.550000e-05 5.000000e-07)	19	1.127833e+03	(2.050000e-05 4.500000e-06 5.000000e-07)	16
0.0005143228  	T             	7.710904e+02	(4.150000e-05 9.550000e-05 5.000000e-07)	19	1.134329e+03	(2.050000e-05 4.500000e-06 5.000000e-07)	16
0.0005243182  	T             	7.710962e+02	(4.250000e-05 9.550000e-05 5.000000e-07)	19	1.140246e+03	(2.050000e-05 4.500000e-06 5.000000e-07)	16
0.0005343137  	T             	7.711028e+02	(4.250000e-05 9.550000e-05 5.000000e-07)	19	1.145655e+03	(2.050000e-05 4.500000e-06 5.000000e-07)	16
0.0005443091  	T             	7.711104e+02	(8.950000e-05 6.550000e-05 5.000000e-07)	24	1.150609e+03	(2.050000e-05 4.500000e-06 5.000000e-07)	16
0.0005543046  	T             	7.710621e+02	(8.950000e-05 6.550000e-05 5.000000e-07)	24	1.155154e+03	(2.050000e-05 4.500000e-06 5.000000e-07)	16
0.0005643     	T             	7.710146e+02	(8.950000e-05 6.550000e-05 5.000000e-07)	24	1.159332e+03	(2.050000e-05 4.500000e-06 5.000000e-07)	16
0.0005742955  	T             	7.709681e+02	(8.950000e-05 6.550000e-05 5.000000e-07)	24	1.163195e+03	(2.050000e-05 4.500000e-06 5.000000e-07)	16
0.0005842909  	T             	7.709224e+02	(8.950000e-05 6.550000e-05 5.000000e-07)	24	1.166772e+03	(2.050000e-05 4.500000e-06 5.000000e-07)	16
0.0005942864  	T             	7.708776e+02	(8.950000e-05 6.550000e-05 5.000000e-07)	24	1.170075e+03	(2.050000e-05 4.500000e-06 5.000000e-07)	16
0.0006042818  	T             	7.708337e+02	(8.950000e-05 6.550000e-05 5.000000e-07)	24	1.173138e+03	(2.050000e-05 4.500000e-06 5.000000e-07)	16
0.0006142772  	T             	7.707908e+02	(8.950000e-05 6.550000e-05 5.000000e-07)	24	1.175980e+03	(2.050000e-05 4.500000e-06 5.000000e-07)	16
0.0006242727  	T             	7.707487e+02	(8.950000e-05 6.550000e-05 5.000000e-07)	24	1.178613e+03	(2.050000e-05 4.500000e-06 5.000000e-07)	16
0.0006342681  	T             	7.707075e+02	(8.950000e-05 6.550000e-05 5.000000e-07)	24	1.181068e+03	(2.050000e-05 4.500000e-06 5.000000e-07)	16
0.0006442636  	T             	7.706672e+02	(8.950000e-05 6.550000e-05 5.000000e-07)	24	1.183356e+03	(2.050000e-05 4.500000e-06 5.000000e-07)	16
0.000654259   	T             	7.706278e+02	(8.950000e-05 6.550000e-05 5.000000e-07)	24	1.185490e+03	(2.050000e-05 4.500000e-06 5.000000e-07)	16
0.0006642545  	T             	7.705892e+02	(8.950000e-05 6.550000e-05 5.000000e-07)	24	1.187487e+03	(2.050000e-05 4.500000e-06 5.000000e-07)	16
0.0006742499  	T             	7.705516e+02	(8.950000e-05 6.550000e-05 5.000000e-07)	24	1.189352e+03	(2.050000e-05 4.500000e-06 5.000000e-07)	16
0.0006842454  	T             	7.705148e+02	(8.950000e-05 6.550000e-05 5.000000e-07)	24	1.191095e+03	(2.050000e-05 4.500000e-06 5.000000e-07)	16
0.0006942408  	T             	7.704788e+02	(8.950000e-05 6.550000e-05 5.000000e-07)	24	1.192722e+03	(2.050000e-05 4.500000e-06 5.000000e-07)	16
0.0007042362  	T             	7.704438e+02	(8.950000e-05 6.550000e-05 5.000000e-07)	24	1.194249e+03	(2.050000e-05 4.500000e-06 5.000000e-07)	16
0.0007142317  	T             	7.704090e+02	(9.050000e-05 6.650000e-05 5.000000e-07)	24	1.195679e+03	(2.050000e-05 4.500000e-06 5.000000e-07)	16
0.0007242271  	T             	7.703746e+02	(9.050000e-05 6.650000e-05 5.000000e-07)	24	1.197018e+03	(2.050000e-05 4.500000e-06 5.000000e-07)	16
0.0007342226  	T             	7.703410e+02	(9.050000e-05 6.650000e-05 5.000000e-07)	24	1.198280e+03	(2.050000e-05 4.500000e-06 5.000000e-07)	16
0.000744218   	T             	7.703081e+02	(9.050000e-05 6.650000e-05 5.000000e-07)	24	1.199467e+03	(2.050000e-05 4.500000e-06 5.000000e-07)	16
0.0007542135  	T             	7.702760e+02	(9.050000e-05 6.650000e-05 5.000000e-07)	24	1.200585e+03	(2.050000e-05 4.500000e-06 5.000000e-07)	16
0.0007642089  	T             	7.702446e+02	(9.050000e-05 6.650000e-05 5.000000e-07)	24	1.201638e+03	(2.050000e-05 4.500000e-06 5.000000e-07)	16
0.0007742044  	T             	7.702139e+02	(9.050000e-05 6.650000e-05 5.000000e-07)	24	1.202632e+03	(2.050000e-05 4.500000e-06 5.000000e-07)	16
0.0007841998  	T             	7.701840e+02	(9.050000e-05 6.650000e-05 5.000000e-07)	24	1.203554e+03	(2.050000e-05 4.500000e-06 5.000000e-07)	16
0.0007941952  	T             	7.701547e+02	(9.050000e-05 6.650000e-05 5.000000e-07)	24	1.204428e+03	(2.050000e-05 4.500000e-06 5.000000e-07)	16
0.0008041907  	T             	7.701262e+02	(9.050000e-05 6.650000e-05 5.000000e-07)	24	1.205257e+03	(2.050000e-05 4.500000e-06 5.000000e-07)	16
0.0008141861  	T             	7.700983e+02	(9.050000e-05 6.650000e-05 5.000000e-07)	24	1.206045e+03	(2.050000e-05 4.500000e-06 5.000000e-07)	16
0.0008241816  	T             	7.700711e+02	(9.050000e-05 6.650000e-05 5.000000e-07)	24	1.206794e+03	(2.050000e-05 4.500000e-06 5.000000e-07)	16
0.000834177   	T             	7.700446e+02	(9.050000e-05 6.650000e-05 5.000000e-07)	24	1.207503e+03	(2.050000e-05 4.500000e-06 5.000000e-07)	16
0.0008441725  	T             	7.700188e+02	(9.050000e-05 6.650000e-05 5.000000e-07)	24	1.208172e+03	(2.050000e-05 4.500000e-06 5.000000e-07)	16
0.0008541679  	T             	7.699936e+02	(9.050000e-05 6.650000e-05 5.000000e-07)	24	1.208797e+03	(2.050000e-05 4.500000e-06 5.000000e-07)	16
0.0008641634  	T             	7.699690e+02	(9.050000e-05 6.650000e-05 5.000000e-07)	24	1.209399e+03	(2.050000e-05 4.500000e-06 5.000000e-07)	16
0.0008741588  	T             	7.699451e+02	(9.050000e-05 6.650000e-05 5.000000e-07)	24	1.209976e+03	(2.050000e-05 4.500000e-06 5.000000e-07)	16
0.0008841543  	T             	7.699218e+02	(9.050000e-05 6.650000e-05 5.000000e-07)	24	1.210509e+03	(2.050000e-05 4.500000e-06 5.000000e-07)	16
0.0008941497  	T             	7.698992e+02	(9.050000e-05 6.650000e-05 5.000000e-07)	24	1.211042e+03	(2.050000e-05 4.500000e-06 5.000000e-07)	16
0.0009041451  	T             	7.698772e+02	(9.050000e-05 6.650000e-05 5.000000e-07)	24	1.211549e+03	(2.050000e-05 4.500000e-06 5.000000e-07)	16
0.0009141406  	T             	7.698557e+02	(9.050000e-05 6.650000e-05 5.000000e-07)	24	1.212033e+03	(2.050000e-05 4.500000e-06 5.000000e-07)	16
0.000924136   	T             	7.698349e+02	(9.050000e-05 6.650000e-05 5.000000e-07)	24	1.212484e+03	(2.050000e-05 4.500000e-06 5.000000e-07)	16
0.0009341315  	T             	7.698147e+02	(9.050000e-05 6.650000e-05 5.000000e-07)	24	1.212929e+03	(2.050000e-05 4.500000e-06 5.000000e-07)	16
0.0009441269  	T             	7.697951e+02	(9.050000e-05 6.650000e-05 5.000000e-07)	24	1.213354e+03	(2.050000e-05 4.500000e-06 5.000000e-07)	16
0.0009541224  	T             	7.697755e+02	(9.150000e-05 6.650000e-05 5.000000e-07)	24	1.213761e+03	(2.050000e-05 4.500000e-06 5.000000e-07)	16
0.0009641178  	T             	7.697559e+02	(9.150000e-05 6.650000e-05 5.000000e-07)	24	1.214125e+03	(2.050000e-05 4.500000e-06 5.000000e-07)	16
0.0009741133  	T             	7.697368e+02	(9.150000e-05 6.650000e-05 5.000000e-07)	24	1.214484e+03	(2.050000e-05 4.500000e-06 5.000000e-07)	16
0.0009841087  	T             	7.697182e+02	(9.150000e-05 6.650000e-05 5.000000e-07)	24	1.214836e+03	(2.050000e-05 4.500000e-06 5.000000e-07)	16
0.0009941041  	T             	7.697002e+02	(9.150000e-05 6.650000e-05 5.000000e-07)	24	1.215176e+03	(2.050000e-05 4.500000e-06 5.000000e-07)	16
0.0010041     	T             	7.696827e+02	(9.150000e-05 6.650000e-05 5.000000e-07)	24	1.215499e+03	(2.050000e-05 4.500000e-06 5.000000e-07)	16
0.001014095   	T             	7.696657e+02	(9.150000e-05 6.650000e-05 5.000000e-07)	24	1.215814e+03	(2.050000e-05 4.500000e-06 5.000000e-07)	16
0.00102409    	T             	7.696492e+02	(9.150000e-05 6.650000e-05 5.000000e-07)	24	1.216119e+03	(2.050000e-05 4.500000e-06 5.000000e-07)	16
0.001034086   	T             	7.696332e+02	(9.150000e-05 6.650000e-05 5.000000e-07)	24	1.216414e+03	(2.050000e-05 4.500000e-06 5.000000e-07)	16
0.001044081   	T             	7.696177e+02	(9.150000e-05 6.650000e-05 5.000000e-07)	24	1.216706e+03	(2.050000e-05 4.500000e-06 5.000000e-07)	16
0.001054077   	T             	7.696026e+02	(9.150000e-05 6.650000e-05 5.000000e-07)	24	1.216982e+03	(2.050000e-05 4.500000e-06 5.000000e-07)	16
0.001064072   	T             	7.695881e+02	(9.150000e-05 6.650000e-05 5.000000e-07)	24	1.217270e+03	(2.050000e-05 4.500000e-06 5.000000e-07)	16
0.001074068   	T             	7.695740e+02	(9.150000e-05 6.650000e-05 5.000000e-07)	24	1.217522e+03	(2.050000e-05 4.500000e-06 5.000000e-07)	16
0.001084063   	T             	7.695605e+02	(9.150000e-05 6.650000e-05 5.000000e-07)	24	1.217769e+03	(2.050000e-05 4.500000e-06 5.000000e-07)	16
0.001094059   	T             	7.695473e+02	(9.150000e-05 6.650000e-05 5.000000e-07)	24	1.218027e+03	(2.050000e-05 4.500000e-06 5.000000e-07)	16
0.001104054   	T             	7.695346e+02	(9.150000e-05 6.650000e-05 5.000000e-07)	24	1.218270e+03	(2.050000e-05 4.500000e-06 5.000000e-07)	16
0.001114049   	T             	7.695204e+02	(9.250000e-05 6.550000e-05 5.000000e-07)	24	1.218503e+03	(2.050000e-05 4.500000e-06 5.000000e-07)	16
0.001124045   	T             	7.695065e+02	(9.250000e-05 6.550000e-05 5.000000e-07)	24	1.218727e+03	(2.050000e-05 4.500000e-06 5.000000e-07)	16
0.00113404    	T             	7.694930e+02	(9.250000e-05 6.550000e-05 5.000000e-07)	24	1.218943e+03	(2.050000e-05 4.500000e-06 5.000000e-07)	16
0.001144036   	T             	7.694799e+02	(9.250000e-05 6.550000e-05 5.000000e-07)	24	1.219152e+03	(2.050000e-05 4.500000e-06 5.000000e-07)	16
0.001154031   	T             	7.694672e+02	(9.250000e-05 6.550000e-05 5.000000e-07)	24	1.219354e+03	(2.050000e-05 4.500000e-06 5.000000e-07)	16
0.001164027   	T             	7.694549e+02	(9.250000e-05 6.550000e-05 5.000000e-07)	24	1.219550e+03	(2.050000e-05 4.500000e-06 5.000000e-07)	16
0.001174022   	T             	7.694430e+02	(9.250000e-05 6.550000e-05 5.000000e-07)	24	1.219741e+03	(2.050000e-05 4.500000e-06 5.000000e-07)	16
0.001184018   	T             	7.694315e+02	(9.250000e-05 6.550000e-05 5.000000e-07)	24	1.219924e+03	(2.050000e-05 4.500000e-06 5.000000e-07)	16
0.001194013   	T             	7.694203e+02	(9.250000e-05 6.550000e-05 5.000000e-07)	24	1.220103e+03	(2.050000e-05 4.500000e-06 5.000000e-07)	16
0.001204008   	T             	7.694096e+02	(9.250000e-05 6.550000e-05 5.000000e-07)	24	1.220279e+03	(2.050000e-05 4.500000e-06 5.000000e-07)	16
0.001214004   	T             	7.693992e+02	(9.250000e-05 6.550000e-05 5.000000e-07)	24	1.220449e+03	(2.050000e-05 4.500000e-06 5.000000e-07)	16
0.001223999   	T             	7.693892e+02	(9.250000e-05 6.550000e-05 5.000000e-07)	24	1.220613e+03	(2.050000e-05 4.500000e-06 5.000000e-07)	16
0.001233995   	T             	7.693796e+02	(9.250000e-05 6.550000e-05 5.000000e-07)	24	1.220772e+03	(2.050000e-05 4.500000e-06 5.000000e-07)	16
0.00124399    	T             	7.693704e+02	(9.250000e-05 6.550000e-05 5.000000e-07)	24	1.220928e+03	(2.050000e-05 4.500000e-06 5.000000e-07)	16
0.001253986   	T             	7.693605e+02	(9.350000e-05 6.450000e-05 5.000000e-07)	24	1.221077e+03	(2.050000e-05 4.500000e-06 5.000000e-07)	16
0.001263981   	T             	7.693500e+02	(9.350000e-05 6.450000e-05 5.000000e-07)	24	1.221225e+03	(2.050000e-05 4.500000e-06 5.000000e-07)	16
0.001273977   	T             	7.693398e+02	(9.350000e-05 6.450000e-05 5.000000e-07)	24	1.221367e+03	(2.050000e-05 4.500000e-06 5.000000e-07)	16
0.001283972   	T             	7.693299e+02	(9.350000e-05 6.450000e-05 5.000000e-07)	24	1.221505e+03	(2.050000e-05 4.500000e-06 5.000000e-07)	16
0.001293967   	T             	7.693203e+02	(9.350000e-05 6.450000e-05 5.000000e-07)	24	1.221638e+03	(2.050000e-05 4.500000e-06 5.000000e-07)	16
0.001303963   	T             	7.693111e+02	(9.350000e-05 6.450000e-05 5.000000e-07)	24	1.221769e+03	(2.050000e-05 4.500000e-06 5.000000e-07)	16
0.001313958   	T             	7.693022e+02	(9.350000e-05 6.450000e-05 5.000000e-07)	24	1.221895e+03	(2.050000e-05 4.500000e-06 5.000000e-07)	16
0.001323954   	T             	7.692936e+02	(9.350000e-05 6.450000e-05 5.000000e-07)	24	1.221967e+03	(2.050000e-05 4.500000e-06 5.000000e-07)	16
0.001333949   	T             	7.692853e+02	(9.350000e-05 6.450000e-05 5.000000e-07)	24	1.222057e+03	(2.050000e-05 4.500000e-06 5.000000e-07)	16
0.001343945   	T             	7.692774e+02	(9.350000e-05 6.450000e-05 5.000000e-07)	24	1.222153e+03	(2.050000e-05 4.500000e-06 5.000000e-07)	16
0.00135394    	T             	7.692697e+02	(9.350000e-05 6.450000e-05 5.000000e-07)	24	1.222254e+03	(2.050000e-05 4.500000e-06 5.000000e-07)	16
0.001363936   	T             	7.692624e+02	(9.350000e-05 6.450000e-05 5.000000e-07)	24	1.222399e+03	(2.050000e-05 4.500000e-06 5.000000e-07)	16
0.001373931   	T             	7.692554e+02	(9.350000e-05 6.450000e-05 5.000000e-07)	24	1.222478e+03	(2.050000e-05 4.500000e-06 5.000000e-07)	16
0.001383926   	T             	7.692486e+02	(9.350000e-05 6.450000e-05 5.000000e-07)	24	1.222612e+03	(2.050000e-05 4.500000e-06 5.000000e-07)	16
0.001393922   	T             	7.692422e+02	(9.350000e-05 6.450000e-05 5.000000e-07)	24	1.222678e+03	(2.050000e-05 4.500000e-06 5.000000e-07)	16
0.001403917   	T             	7.692360e+02	(9.350000e-05 6.450000e-05 5.000000e-07)	24	1.222803e+03	(2.050000e-05 4.500000e-06 5.000000e-07)	16
0.001413913   	T             	7.692297e+02	(9.350000e-05 6.350000e-05 5.000000e-07)	24	1.222863e+03	(2.050000e-05 4.500000e-06 5.000000e-07)	16
0.001423908   	T             	7.692233e+02	(9.350000e-05 6.350000e-05 5.000000e-07)	24	1.222980e+03	(2.050000e-05 4.500000e-06 5.000000e-07)	16
0.001433904   	T             	7.692172e+02	(9.350000e-05 6.350000e-05 5.000000e-07)	24	1.223031e+03	(2.050000e-05 4.500000e-06 5.000000e-07)	16
0.001443899   	T             	7.692114e+02	(9.350000e-05 6.350000e-05 5.000000e-07)	24	1.223142e+03	(2.050000e-05 4.500000e-06 5.000000e-07)	16
0.001453895   	T             	7.692059e+02	(9.350000e-05 6.350000e-05 5.000000e-07)	24	1.223184e+03	(2.050000e-05 4.500000e-06 5.000000e-07)	16
0.00146389    	T             	7.692006e+02	(9.350000e-05 6.350000e-05 5.000000e-07)	24	1.223238e+03	(2.050000e-05 4.500000e-06 5.000000e-07)	16
0.001473886   	T             	7.691956e+02	(9.350000e-05 6.350000e-05 5.000000e-07)	24	1.223346e+03	(2.050000e-05 4.500000e-06 5.000000e-07)	16
0.001483881   	T             	7.691905e+02	(9.350000e-05 6.250000e-05 5.000000e-07)	24	1.223431e+03	(2.050000e-05 4.500000e-06 5.000000e-07)	16
0.001493876   	T             	7.691853e+02	(9.350000e-05 6.250000e-05 5.000000e-07)	24	1.223504e+03	(2.050000e-05 4.500000e-06 5.000000e-07)	16
0.001503872   	T             	7.691805e+02	(9.350000e-05 6.250000e-05 5.000000e-07)	24	1.223570e+03	(2.050000e-05 4.500000e-06 5.000000e-07)	16
0.001513867   	T             	7.691759e+02	(9.350000e-05 6.250000e-05 5.000000e-07)	24	1.223631e+03	(2.050000e-05 4.500000e-06 5.000000e-07)	16
0.001523863   	T             	7.691715e+02	(9.350000e-05 6.250000e-05 5.000000e-07)	24	1.223687e+03	(2.050000e-05 4.500000e-06 5.000000e-07)	16
0.001533858   	T             	7.691674e+02	(9.350000e-05 6.250000e-05 5.000000e-07)	24	1.223738e+03	(2.050000e-05 4.500000e-06 5.000000e-07)	16
0.001543854   	T             	7.691636e+02	(9.350000e-05 6.250000e-05 5.000000e-07)	24	1.223786e+03	(2.050000e-05 4.500000e-06 5.000000e-07)	16
0.001553849   	T             	7.691596e+02	(9.350000e-05 6.150000e-05 5.000000e-07)	24	1.223829e+03	(2.050000e-05 4.500000e-06 5.000000e-07)	16
0.001563845   	T             	7.691557e+02	(9.350000e-05 6.150000e-05 5.000000e-07)	24	1.223869e+03	(2.050000e-05 4.500000e-06 5.000000e-07)	16
0.00157384    	T             	7.691520e+02	(9.350000e-05 6.150000e-05 5.000000e-07)	24	1.223904e+03	(2.050000e-05 4.500000e-06 5.000000e-07)	16
0.001583835   	T             	7.691486e+02	(9.350000e-05 6.150000e-05 5.000000e-07)	24	1.223935e+03	(2.050000e-05 4.500000e-06 5.000000e-07)	16
0.001593831   	T             	7.691454e+02	(9.350000e-05 6.150000e-05 5.000000e-07)	24	1.224000e+03	(2.050000e-05 3.500000e-06 5.000000e-07)	16
0.001603826   	T             	7.691424e+02	(9.350000e-05 6.150000e-05 5.000000e-07)	24	1.224088e+03	(2.050000e-05 3.500000e-06 5.000000e-07)	16
0.001613822   	T             	7.691396e+02	(9.350000e-05 6.150000e-05 5.000000e-07)	24	1.224173e+03	(2.050000e-05 3.500000e-06 5.000000e-07)	16
0.001623817   	T             	7.691368e+02	(9.350000e-05 6.050000e-05 5.000000e-07)	24	1.224256e+03	(2.050000e-05 3.500000e-06 5.000000e-07)	16