# Field minima and maxima
# Time        	field         	min           	location(min) 	processor     	max           	location(max) 	processor     
1.199904e-06  	T             	7.729480e+02	(1.750000e-05 4.050000e-05 5.000000e-07)	0	7.730000e+02	(0.000000e+00 5.000000e-07 5.000000e-07)	0
2.639616e-06  	T             	7.729488e+02	(2.350000e-05 4.050000e-05 5.000000e-07)	0	7.730000e+02	(0.000000e+00 5.000000e-07 5.000000e-07)	0
4.367171e-06  	T             	7.729495e+02	(2.750000e-05 4.050000e-05 5.000000e-07)	0	7.730000e+02	(0.000000e+00 5.000000e-07 5.000000e-07)	0
6.440094e-06  	T             	7.729501e+02	(3.250000e-05 4.050000e-05 5.000000e-07)	0	7.730000e+02	(0.000000e+00 5.000000e-07 5.000000e-07)	0
8.927291e-06  	T             	7.729508e+02	(3.750000e-05 4.050000e-05 5.000000e-07)	0	7.730000e+02	(0.000000e+00 5.000000e-07 5.000000e-07)	0
1.191148e-05  	T             	7.729515e+02	(4.150000e-05 4.050000e-05 5.000000e-07)	0	7.730000e+02	(0.000000e+00 5.000000e-07 5.000000e-07)	0
1.549144e-05  	T             	7.729522e+02	(4.550000e-05 7.950000e-05 5.000000e-07)	0	7.730000e+02	(0.000000e+00 5.000000e-07 5.000000e-07)	0
1.978585e-05  	T             	7.729531e+02	(4.950000e-05 7.950000e-05 5.000000e-07)	0	7.730000e+02	(0.000000e+00 5.000000e-07 5.000000e-07)	0
2.493826e-05  	T             	7.729542e+02	(5.150000e-05 7.950000e-05 5.000000e-07)	0	7.730000e+02	(0.000000e+00 5.000000e-07 5.000000e-07)	0
3.11186e-05   	T             	7.729558e+02	(5.350000e-05 7.950000e-05 5.000000e-07)	1	7.730000e+02	(0.000000e+00 5.000000e-07 5.000000e-07)	0
3.853041e-05  	T             	7.729579e+02	(5.450000e-05 7.950000e-05 5.000000e-07)	1	7.730000e+02	(0.000000e+00 5.000000e-07 5.000000e-07)	0
4.742458e-05  	T             	7.729605e+02	(5.550000e-05 7.950000e-05 5.000000e-07)	1	7.730000e+02	(0.000000e+00 5.000000e-07 5.000000e-07)	0
5.809186e-05  	T             	7.729637e+02	(5.550000e-05 7.950000e-05 5.000000e-07)	1	7.730000e+02	(0.000000e+00 5.000000e-07 5.000000e-07)	0
7.088711e-05  	T             	7.729672e+02	(5.650000e-05 7.950000e-05 5.000000e-07)	1	7.730017e+02	(1.005000e-04 4.950000e-05 5.000000e-07)	1
8.62335e-05   	T             	7.729712e+02	(5.550000e-05 7.950000e-05 5.000000e-07)	1	7.730060e+02	(1.005000e-04 3.050000e-05 5.000000e-07)	1
0.0001046264  	T             	7.729757e+02	(5.550000e-05 7.950000e-05 5.000000e-07)	1	7.730145e+02	(1.005000e-04 3.050000e-05 5.000000e-07)	1
0.0001266651  	T             	7.729807e+02	(5.250000e-05 7.950000e-05 5.000000e-07)	0	7.730302e+02	(1.005000e-04 3.050000e-05 5.000000e-07)	1
0.0001530644  	T             	7.729865e+02	(4.750000e-05 7.950000e-05 5.000000e-07)	0	7.730570e+02	(1.005000e-04 3.050000e-05 5.000000e-07)	1
0.0001847265  	T             	7.729911e+02	(3.145000e-04 5.000000e-07 5.000000e-07)	5	7.731010e+02	(1.005000e-04 3.050000e-05 5.000000e-07)	1
0.0002226233  	T             	7.729918e+02	(3.225000e-04 5.000000e-07 5.000000e-07)	6	7.731701e+02	(1.005000e-04 3.050000e-05 5.000000e-07)	1
0.0002680995  	T             	7.729924e+02	(3.335000e-04 5.000000e-07 5.000000e-07)	6	7.732761e+02	(1.005000e-04 3.050000e-05 5.000000e-07)	1
0.0003224677  	T             	7.729929e+02	(3.505000e-04 5.000000e-07 5.000000e-07)	6	7.734341e+02	(1.005000e-04 3.050000e-05 5.000000e-07)	1
0.0003874176  	T             	7.729933e+02	(3.905000e-04 4.500000e-06 5.000000e-07)	7	7.736646e+02	(1.005000e-04 3.050000e-05 5.000000e-07)	1
0.0004649384  	T             	7.729935e+02	(4.195000e-04 1.500000e-06 5.000000e-07)	7	7.739945e+02	(1.005000e-04 3.050000e-05 5.000000e-07)	1
0.0005575118  	T             	7.729945e+02	(4.195000e-04 5.000000e-07 5.000000e-07)	7	7.744589e+02	(1.005000e-04 3.050000e-05 5.000000e-07)	1
0.0006569064  	T             	7.729966e+02	(4.195000e-04 5.000000e-07 5.000000e-07)	7	7.750307e+02	(1.005000e-04 3.050000e-05 5.000000e-07)	1
0.000756301   	T             	7.730000e+02	(0.000000e+00 5.000000e-07 5.000000e-07)	0	7.756692e+02	(1.005000e-04 3.050000e-05 5.000000e-07)	1
0.0008556956  	T             	7.730000e+02	(0.000000e+00 5.000000e-07 5.000000e-07)	0	7.763686e+02	(1.005000e-04 3.050000e-05 5.000000e-07)	1
0.0009550903  	T             	7.730000e+02	(0.000000e+00 5.000000e-07 5.000000e-07)	0	7.771244e+02	(1.005000e-04 3.050000e-05 5.000000e-07)	1
0.001054485   	T             	7.730000e+02	(0.000000e+00 5.000000e-07 5.000000e-07)	0	7.779331e+02	(1.005000e-04 3.050000e-05 5.000000e-07)	1
0.001153879   	T             	7.730000e+02	(0.000000e+00 5.000000e-07 5.000000e-07)	0	7.787918e+02	(1.005000e-04 3.050000e-05 5.000000e-07)	1
0.001253274   	T             	7.730000e+02	(0.000000e+00 5.000000e-07 5.000000e-07)	0	7.796983e+02	(1.005000e-04 3.050000e-05 5.000000e-07)	1
0.001352669   	T             	7.730000e+02	(0.000000e+00 5.000000e-07 5.000000e-07)	0	7.806510e+02	(1.005000e-04 3.050000e-05 5.000000e-07)	1
0.001452063   	T             	7.730000e+02	(0.000000e+00 5.000000e-07 5.000000e-07)	0	7.816487e+02	(1.005000e-04 3.050000e-05 5.000000e-07)	1
0.001551458   	T             	7.730000e+02	(0.000000e+00 5.000000e-07 5.000000e-07)	0	7.826908e+02	(1.005000e-04 3.050000e-05 5.000000e-07)	1
0.001650853   	T             	7.730000e+02	(0.000000e+00 5.000000e-07 5.000000e-07)	0	7.837769e+02	(1.005000e-04 3.050000e-05 5.000000e-07)	1
0.001750247   	T             	7.730000e+02	(0.000000e+00 5.000000e-07 5.000000e-07)	0	7.849071e+02	(1.005000e-04 3.050000e-05 5.000000e-07)	1
0.001849642   	T             	7.730000e+02	(0.000000e+00 5.000000e-07 5.000000e-07)	0	7.860816e+02	(1.005000e-04 3.050000e-05 5.000000e-07)	1
0.001949036   	T             	7.730000e+02	(0.000000e+00 5.000000e-07 5.000000e-07)	0	7.873011e+02	(1.005000e-04 3.050000e-05 5.000000e-07)	1
0.002048431   	T             	7.730000e+02	(0.000000e+00 5.000000e-07 5.000000e-07)	0	7.885664e+02	(1.005000e-04 3.050000e-05 5.000000e-07)	1
0.002147826   	T             	7.730000e+02	(0.000000e+00 5.000000e-07 5.000000e-07)	0	7.898788e+02	(1.005000e-04 3.050000e-05 5.000000e-07)	1
0.00224722    	T             	7.730000e+02	(0.000000e+00 5.000000e-07 5.000000e-07)	0	7.912395e+02	(1.005000e-04 3.050000e-05 5.000000e-07)	1
0.002346615   	T             	7.730000e+02	(0.000000e+00 5.000000e-07 5.000000e-07)	0	7.926504e+02	(1.005000e-04 3.050000e-05 5.000000e-07)	1
0.002446009   	T             	7.730000e+02	(0.000000e+00 5.000000e-07 5.000000e-07)	0	7.941132e+02	(1.005000e-04 3.050000e-05 5.000000e-07)	1
0.002545404   	T             	7.730000e+02	(0.000000e+00 5.000000e-07 5.000000e-07)	0	7.956303e+02	(1.005000e-04 3.050000e-05 5.000000e-07)	1
0.002644799   	T             	7.730000e+02	(0.000000e+00 5.000000e-07 5.000000e-07)	0	7.972041e+02	(1.005000e-04 3.050000e-05 5.000000e-07)	1
0.002744193   	T             	7.730000e+02	(0.000000e+00 5.000000e-07 5.000000e-07)	0	7.988374e+02	(1.005000e-04 3.050000e-05 5.000000e-07)	1
0.002843588   	T             	7.730000e+02	(0.000000e+00 5.000000e-07 5.000000e-07)	0	8.005333e+02	(1.005000e-04 3.050000e-05 5.000000e-07)	1
0.002942983   	T             	7.730000e+02	(0.000000e+00 5.000000e-07 5.000000e-07)	0	8.022952e+02	(1.005000e-04 3.050000e-05 5.000000e-07)	1
0.003042377   	T             	7.730000e+02	(0.000000e+00 5.000000e-07 5.000000e-07)	0	8.041271e+02	(1.005000e-04 3.050000e-05 5.000000e-07)	1
0.003141772   	T             	7.730000e+02	(0.000000e+00 5.000000e-07 5.000000e-07)	0	8.060329e+02	(1.005000e-04 3.050000e-05 5.000000e-07)	1
0.003241166   	T             	7.730000e+02	(0.000000e+00 5.000000e-07 5.000000e-07)	0	8.080175e+02	(1.005000e-04 3.050000e-05 5.000000e-07)	1
0.003340561   	T             	7.730000e+02	(0.000000e+00 5.000000e-07 5.000000e-07)	0	8.100858e+02	(1.005000e-04 3.050000e-05 5.000000e-07)	1
0.003439956   	T             	7.730000e+02	(0.000000e+00 5.000000e-07 5.000000e-07)	0	8.122436e+02	(1.005000e-04 3.050000e-05 5.000000e-07)	1
0.00353935    	T             	7.730000e+02	(0.000000e+00 5.000000e-07 5.000000e-07)	0	8.144968e+02	(1.005000e-04 3.050000e-05 5.000000e-07)	1
0.003638745   	T             	7.730000e+02	(0.000000e+00 5.000000e-07 5.000000e-07)	0	8.168523e+02	(1.005000e-04 3.050000e-05 5.000000e-07)	1
0.003738139   	T             	7.730000e+02	(0.000000e+00 5.000000e-07 5.000000e-07)	0	8.193176e+02	(1.005000e-04 3.050000e-05 5.000000e-07)	1
0.003837534   	T             	7.730000e+02	(0.000000e+00 5.000000e-07 5.000000e-07)	0	8.219006e+02	(1.005000e-04 3.050000e-05 5.000000e-07)	1
0.003936929   	T             	7.730000e+02	(0.000000e+00 5.000000e-07 5.000000e-07)	0	8.246104e+02	(1.005000e-04 3.050000e-05 5.000000e-07)	1
0.004036323   	T             	7.730000e+02	(0.000000e+00 5.000000e-07 5.000000e-07)	0	8.274567e+02	(1.005000e-04 3.050000e-05 5.000000e-07)	1
0.004135718   	T             	7.730000e+02	(0.000000e+00 5.000000e-07 5.000000e-07)	0	8.304500e+02	(1.005000e-04 3.050000e-05 5.000000e-07)	1
0.004235112   	T             	7.730000e+02	(0.000000e+00 5.000000e-07 5.000000e-07)	0	8.336019e+02	(1.005000e-04 3.050000e-05 5.000000e-07)	1
0.004334507   	T             	7.730000e+02	(0.000000e+00 5.000000e-07 5.000000e-07)	0	8.369248e+02	(1.005000e-04 3.050000e-05 5.000000e-07)	1
0.004433902   	T             	7.730000e+02	(0.000000e+00 5.000000e-07 5.000000e-07)	0	8.404321e+02	(1.005000e-04 3.050000e-05 5.000000e-07)	1
0.004533296   	T             	7.730000e+02	(0.000000e+00 5.000000e-07 5.000000e-07)	0	8.441379e+02	(1.005000e-04 3.050000e-05 5.000000e-07)	1
0.004632691   	T             	7.730000e+02	(0.000000e+00 5.000000e-07 5.000000e-07)	0	8.480573e+02	(1.005000e-04 3.050000e-05 5.000000e-07)	1
0.004732086   	T             	7.730000e+02	(0.000000e+00 5.000000e-07 5.000000e-07)	0	8.522055e+02	(1.005000e-04 3.050000e-05 5.000000e-07)	1
0.00483148    	T             	7.730000e+02	(0.000000e+00 5.000000e-07 5.000000e-07)	0	8.565979e+02	(1.005000e-04 3.050000e-05 5.000000e-07)	1
0.004930875   	T             	7.730000e+02	(0.000000e+00 5.000000e-07 5.000000e-07)	0	8.612496e+02	(1.005000e-04 3.050000e-05 5.000000e-07)	1
0.005030269   	T             	7.730000e+02	(0.000000e+00 5.000000e-07 5.000000e-07)	0	8.661742e+02	(1.005000e-04 3.050000e-05 5.000000e-07)	1
0.005129664   	T             	7.730000e+02	(0.000000e+00 5.000000e-07 5.000000e-07)	0	8.713831e+02	(1.005000e-04 3.050000e-05 5.000000e-07)	1
0.005229059   	T             	7.730000e+02	(0.000000e+00 5.000000e-07 5.000000e-07)	0	8.768842e+02	(1.005000e-04 3.050000e-05 5.000000e-07)	1
0.005328453   	T             	7.730000e+02	(0.000000e+00 5.000000e-07 5.000000e-07)	0	8.826803e+02	(1.005000e-04 3.050000e-05 5.000000e-07)	1
0.005427848   	T             	7.730000e+02	(0.000000e+00 5.000000e-07 5.000000e-07)	0	8.887680e+02	(1.005000e-04 3.050000e-05 5.000000e-07)	1
0.005527242   	T             	7.730000e+02	(0.000000e+00 5.000000e-07 5.000000e-07)	0	8.951361e+02	(1.005000e-04 3.050000e-05 5.000000e-07)	1
0.005626637   	T             	7.730000e+02	(0.000000e+00 5.000000e-07 5.000000e-07)	0	9.017649e+02	(1.005000e-04 3.050000e-05 5.000000e-07)	1
0.005726032   	T             	7.730000e+02	(0.000000e+00 5.000000e-07 5.000000e-07)	0	9.086261e+02	(1.005000e-04 3.050000e-05 5.000000e-07)	1
0.005825426   	T             	7.730000e+02	(0.000000e+00 5.000000e-07 5.000000e-07)	0	9.156838e+02	(1.005000e-04 3.050000e-05 5.000000e-07)	1
0.005924821   	T             	7.730000e+02	(0.000000e+00 5.000000e-07 5.000000e-07)	0	9.228966e+02	(1.005000e-04 3.050000e-05 5.000000e-07)	1
0.006024215   	T             	7.730000e+02	(0.000000e+00 5.000000e-07 5.000000e-07)	0	9.302200e+02	(1.005000e-04 3.050000e-05 5.000000e-07)	1
0.00612361    	T             	7.730000e+02	(0.000000e+00 5.000000e-07 5.000000e-07)	0	9.376100e+02	(1.005000e-04 3.050000e-05 5.000000e-07)	1
0.006223005   	T             	7.730000e+02	(0.000000e+00 5.000000e-07 5.000000e-07)	0	9.450252e+02	(1.005000e-04 3.050000e-05 5.000000e-07)	1
0.006322399   	T             	7.730000e+02	(0.000000e+00 5.000000e-07 5.000000e-07)	0	9.524296e+02	(1.005000e-04 3.050000e-05 5.000000e-07)	1
0.006421794   	T             	7.730000e+02	(0.000000e+00 5.000000e-07 5.000000e-07)	0	9.597932e+02	(1.005000e-04 3.050000e-05 5.000000e-07)	1
0.006521189   	T             	7.730000e+02	(0.000000e+00 5.000000e-07 5.000000e-07)	0	9.670924e+02	(1.005000e-04 3.050000e-05 5.000000e-07)	1
0.006620583   	T             	7.730000e+02	(0.000000e+00 5.000000e-07 5.000000e-07)	0	9.743100e+02	(1.005000e-04 3.050000e-05 5.000000e-07)	1
0.006719978   	T             	7.730000e+02	(0.000000e+00 5.000000e-07 5.000000e-07)	0	9.814339e+02	(1.005000e-04 3.050000e-05 5.000000e-07)	1
0.006819372   	T             	7.730000e+02	(0.000000e+00 5.000000e-07 5.000000e-07)	0	9.884561e+02	(1.005000e-04 3.050000e-05 5.000000e-07)	1
0.006918767   	T             	7.730000e+02	(0.000000e+00 5.000000e-07 5.000000e-07)	0	9.953722e+02	(1.005000e-04 3.050000e-05 5.000000e-07)	1
0.007018162   	T             	7.730000e+02	(0.000000e+00 5.000000e-07 5.000000e-07)	0	1.002180e+03	(1.005000e-04 3.050000e-05 5.000000e-07)	1
0.007117556   	T             	7.730000e+02	(0.000000e+00 5.000000e-07 5.000000e-07)	0	1.008878e+03	(1.005000e-04 3.050000e-05 5.000000e-07)	1
0.007216951   	T             	7.730000e+02	(0.000000e+00 5.000000e-07 5.000000e-07)	0	1.015469e+03	(1.005000e-04 3.050000e-05 5.000000e-07)	1
0.007316345   	T             	7.730000e+02	(0.000000e+00 5.000000e-07 5.000000e-07)	0	1.021952e+03	(1.005000e-04 3.050000e-05 5.000000e-07)	1
0.00741574    	T             	7.730000e+02	(0.000000e+00 5.000000e-07 5.000000e-07)	0	1.028330e+03	(1.005000e-04 3.050000e-05 5.000000e-07)	1
0.007515135   	T             	7.730000e+02	(0.000000e+00 5.000000e-07 5.000000e-07)	0	1.034604e+03	(1.005000e-04 3.050000e-05 5.000000e-07)	1
0.007614529   	T             	7.730000e+02	(0.000000e+00 5.000000e-07 5.000000e-07)	0	1.040777e+03	(1.005000e-04 3.050000e-05 5.000000e-07)	1
0.007713924   	T             	7.730000e+02	(0.000000e+00 5.000000e-07 5.000000e-07)	0	1.046852e+03	(1.005000e-04 3.050000e-05 5.000000e-07)	1
0.007813319   	T             	7.730000e+02	(0.000000e+00 5.000000e-07 5.000000e-07)	0	1.052830e+03	(1.005000e-04 3.050000e-05 5.000000e-07)	1
0.007912713   	T             	7.730000e+02	(0.000000e+00 5.000000e-07 5.000000e-07)	0	1.058713e+03	(1.005000e-04 3.050000e-05 5.000000e-07)	1
0.008012108   	T             	7.730000e+02	(0.000000e+00 5.000000e-07 5.000000e-07)	0	1.064504e+03	(1.005000e-04 3.050000e-05 5.000000e-07)	1
0.008111502   	T             	7.730000e+02	(0.000000e+00 5.000000e-07 5.000000e-07)	0	1.070204e+03	(1.005000e-04 3.050000e-05 5.000000e-07)	1
0.008210897   	T             	7.730000e+02	(0.000000e+00 5.000000e-07 5.000000e-07)	0	1.075817e+03	(1.005000e-04 3.050000e-05 5.000000e-07)	1
0.008310292   	T             	7.730000e+02	(0.000000e+00 5.000000e-07 5.000000e-07)	0	1.081344e+03	(1.005000e-04 3.050000e-05 5.000000e-07)	1
0.008409686   	T             	7.730000e+02	(0.000000e+00 5.000000e-07 5.000000e-07)	0	1.086787e+03	(1.005000e-04 3.050000e-05 5.000000e-07)	1
0.008509081   	T             	7.730000e+02	(0.000000e+00 5.000000e-07 5.000000e-07)	0	1.092147e+03	(1.005000e-04 3.050000e-05 5.000000e-07)	1
0.008608475   	T             	7.730000e+02	(0.000000e+00 5.000000e-07 5.000000e-07)	0	1.097428e+03	(1.005000e-04 3.050000e-05 5.000000e-07)	1
0.00870787    	T             	7.730000e+02	(0.000000e+00 5.000000e-07 5.000000e-07)	0	1.102632e+03	(1.005000e-04 3.050000e-05 5.000000e-07)	1
0.008807265   	T             	7.730000e+02	(0.000000e+00 5.000000e-07 5.000000e-07)	0	1.107759e+03	(1.005000e-04 3.050000e-05 5.000000e-07)	1
0.008906659   	T             	7.730000e+02	(0.000000e+00 5.000000e-07 5.000000e-07)	0	1.112811e+03	(1.005000e-04 3.050000e-05 5.000000e-07)	1
0.009006054   	T             	7.730000e+02	(0.000000e+00 5.000000e-07 5.000000e-07)	0	1.117792e+03	(1.005000e-04 3.050000e-05 5.000000e-07)	1
0.009105448   	T             	7.730000e+02	(0.000000e+00 5.000000e-07 5.000000e-07)	0	1.122702e+03	(1.005000e-04 3.050000e-05 5.000000e-07)	1
0.009204843   	T             	7.730000e+02	(0.000000e+00 5.000000e-07 5.000000e-07)	0	1.127543e+03	(1.005000e-04 3.050000e-05 5.000000e-07)	1
0.009304238   	T             	7.730000e+02	(0.000000e+00 5.000000e-07 5.000000e-07)	0	1.132318e+03	(1.005000e-04 3.050000e-05 5.000000e-07)	1
0.009403632   	T             	7.730000e+02	(0.000000e+00 5.000000e-07 5.000000e-07)	0	1.137027e+03	(1.005000e-04 3.050000e-05 5.000000e-07)	1
0.009503027   	T             	7.730000e+02	(0.000000e+00 5.000000e-07 5.000000e-07)	0	1.141673e+03	(1.005000e-04 3.050000e-05 5.000000e-07)	1
0.009602422   	T             	7.730000e+02	(0.000000e+00 5.000000e-07 5.000000e-07)	0	1.146257e+03	(1.005000e-04 3.050000e-05 5.000000e-07)	1
0.009701816   	T             	7.730000e+02	(0.000000e+00 5.000000e-07 5.000000e-07)	0	1.150780e+03	(1.005000e-04 3.050000e-05 5.000000e-07)	1
0.009801211   	T             	7.730000e+02	(0.000000e+00 5.000000e-07 5.000000e-07)	0	1.155245e+03	(1.005000e-04 3.050000e-05 5.000000e-07)	1
0.009900605   	T             	7.730000e+02	(0.000000e+00 5.000000e-07 5.000000e-07)	0	1.159653e+03	(1.005000e-04 3.050000e-05 5.000000e-07)	1
0.01          	T             	7.730000e+02	(0.000000e+00 5.000000e-07 5.000000e-07)	0	1.164005e+03	(1.005000e-04 3.050000e-05 5.000000e-07)	1
0.0101        	T             	7.730000e+02	(0.000000e+00 5.000000e-07 5.000000e-07)	0	1.168329e+03	(1.005000e-04 3.050000e-05 5.000000e-07)	1
0.0102        	T             	7.730000e+02	(0.000000e+00 5.000000e-07 5.000000e-07)	0	1.172600e+03	(1.005000e-04 3.050000e-05 5.000000e-07)	1
0.0103        	T             	7.730000e+02	(0.000000e+00 5.000000e-07 5.000000e-07)	0	1.176819e+03	(1.005000e-04 3.050000e-05 5.000000e-07)	1
0.0104        	T             	7.730000e+02	(0.000000e+00 5.000000e-07 5.000000e-07)	0	1.180987e+03	(1.005000e-04 3.050000e-05 5.000000e-07)	1
0.0105        	T             	7.730000e+02	(0.000000e+00 5.000000e-07 5.000000e-07)	0	1.185106e+03	(1.005000e-04 3.050000e-05 5.000000e-07)	1
0.0106        	T             	7.730000e+02	(0.000000e+00 5.000000e-07 5.000000e-07)	0	1.189177e+03	(1.005000e-04 3.050000e-05 5.000000e-07)	1
0.0107        	T             	7.730000e+02	(0.000000e+00 5.000000e-07 5.000000e-07)	0	1.193202e+03	(1.005000e-04 3.050000e-05 5.000000e-07)	1
0.0108        	T             	7.730000e+02	(0.000000e+00 5.000000e-07 5.000000e-07)	0	1.197181e+03	(1.005000e-04 3.050000e-05 5.000000e-07)	1
0.0109        	T             	7.730000e+02	(0.000000e+00 5.000000e-07 5.000000e-07)	0	1.201116e+03	(1.005000e-04 3.050000e-05 5.000000e-07)	1
0.011         	T             	7.730000e+02	(0.000000e+00 5.000000e-07 5.000000e-07)	0	1.205008e+03	(1.005000e-04 3.050000e-05 5.000000e-07)	1
0.0111        	T             	7.730000e+02	(0.000000e+00 5.000000e-07 5.000000e-07)	0	1.208858e+03	(1.005000e-04 3.050000e-05 5.000000e-07)	1
0.0112        	T             	7.730000e+02	(0.000000e+00 5.000000e-07 5.000000e-07)	0	1.212667e+03	(1.005000e-04 3.050000e-05 5.000000e-07)	1
0.0113        	T             	7.730000e+02	(0.000000e+00 5.000000e-07 5.000000e-07)	0	1.216436e+03	(1.005000e-04 3.050000e-05 5.000000e-07)	1
0.0114        	T             	7.730000e+02	(0.000000e+00 5.000000e-07 5.000000e-07)	0	1.220167e+03	(1.005000e-04 3.050000e-05 5.000000e-07)	1
0.0115        	T             	7.730000e+02	(0.000000e+00 5.000000e-07 5.000000e-07)	0	1.223860e+03	(1.005000e-04 3.050000e-05 5.000000e-07)	1
0.0116        	T             	7.730000e+02	(0.000000e+00 5.000000e-07 5.000000e-07)	0	1.227516e+03	(1.005000e-04 3.050000e-05 5.000000e-07)	1
0.0117        	T             	7.730000e+02	(0.000000e+00 5.000000e-07 5.000000e-07)	0	1.231136e+03	(1.005000e-04 3.050000e-05 5.000000e-07)	1
0.0118        	T             	7.730000e+02	(0.000000e+00 5.000000e-07 5.000000e-07)	0	1.234722e+03	(1.005000e-04 3.050000e-05 5.000000e-07)	1
0.0119        	T             	7.730000e+02	(0.000000e+00 5.000000e-07 5.000000e-07)	0	1.238273e+03	(1.005000e-04 3.050000e-05 5.000000e-07)	1
0.012         	T             	7.730000e+02	(0.000000e+00 5.000000e-07 5.000000e-07)	0	1.241791e+03	(1.005000e-04 3.050000e-05 5.000000e-07)	1
0.0121        	T             	7.730000e+02	(0.000000e+00 5.000000e-07 5.000000e-07)	0	1.245276e+03	(1.005000e-04 3.050000e-05 5.000000e-07)	1
0.0122        	T             	7.730000e+02	(0.000000e+00 5.000000e-07 5.000000e-07)	0	1.248730e+03	(1.005000e-04 3.050000e-05 5.000000e-07)	1
0.0123        	T             	7.730000e+02	(0.000000e+00 5.000000e-07 5.000000e-07)	0	1.252153e+03	(1.005000e-04 3.050000e-05 5.000000e-07)	1
0.0124        	T             	7.730000e+02	(0.000000e+00 5.000000e-07 5.000000e-07)	0	1.255545e+03	(1.005000e-04 3.050000e-05 5.000000e-07)	1
0.0125        	T             	7.730000e+02	(0.000000e+00 5.000000e-07 5.000000e-07)	0	1.258909e+03	(1.005000e-04 3.050000e-05 5.000000e-07)	1
0.0126        	T             	7.730000e+02	(0.000000e+00 5.000000e-07 5.000000e-07)	0	1.262243e+03	(1.005000e-04 3.050000e-05 5.000000e-07)	1
0.0127        	T             	7.730000e+02	(0.000000e+00 5.000000e-07 5.000000e-07)	0	1.265550e+03	(1.005000e-04 3.050000e-05 5.000000e-07)	1
0.0128        	T             	7.730000e+02	(0.000000e+00 5.000000e-07 5.000000e-07)	0	1.268829e+03	(1.005000e-04 3.050000e-05 5.000000e-07)	1
0.0129        	T             	7.730000e+02	(0.000000e+00 5.000000e-07 5.000000e-07)	0	1.272081e+03	(1.005000e-04 3.050000e-05 5.000000e-07)	1
0.013         	T             	7.730000e+02	(0.000000e+00 5.000000e-07 5.000000e-07)	0	1.275308e+03	(1.005000e-04 3.050000e-05 5.000000e-07)	1
0.0131        	T             	7.730000e+02	(0.000000e+00 5.000000e-07 5.000000e-07)	0	1.278509e+03	(1.005000e-04 3.050000e-05 5.000000e-07)	1
0.0132        	T             	7.730000e+02	(0.000000e+00 5.000000e-07 5.000000e-07)	0	1.281685e+03	(1.005000e-04 3.050000e-05 5.000000e-07)	1
0.0133        	T             	7.730000e+02	(0.000000e+00 5.000000e-07 5.000000e-07)	0	1.284837e+03	(1.005000e-04 3.050000e-05 5.000000e-07)	1
0.0134        	T             	7.730000e+02	(0.000000e+00 5.000000e-07 5.000000e-07)	0	1.287965e+03	(1.005000e-04 3.050000e-05 5.000000e-07)	1
0.0135        	T             	7.730000e+02	(0.000000e+00 5.000000e-07 5.000000e-07)	0	1.291070e+03	(1.005000e-04 3.050000e-05 5.000000e-07)	1
0.0136        	T             	7.730000e+02	(0.000000e+00 5.000000e-07 5.000000e-07)	0	1.294152e+03	(1.005000e-04 3.050000e-05 5.000000e-07)	1
0.0137        	T             	7.730000e+02	(0.000000e+00 5.000000e-07 5.000000e-07)	0	1.297212e+03	(1.005000e-04 3.050000e-05 5.000000e-07)	1
0.0138        	T             	7.730000e+02	(0.000000e+00 5.000000e-07 5.000000e-07)	0	1.300251e+03	(1.005000e-04 3.050000e-05 5.000000e-07)	1
0.0139        	T             	7.730000e+02	(0.000000e+00 5.000000e-07 5.000000e-07)	0	1.303268e+03	(1.005000e-04 3.050000e-05 5.000000e-07)	1
0.014         	T             	7.730000e+02	(0.000000e+00 5.000000e-07 5.000000e-07)	0	1.306266e+03	(1.005000e-04 3.050000e-05 5.000000e-07)	1
0.0141        	T             	7.730000e+02	(0.000000e+00 5.000000e-07 5.000000e-07)	0	1.309243e+03	(1.005000e-04 3.050000e-05 5.000000e-07)	1
0.0142        	T             	7.730000e+02	(0.000000e+00 5.000000e-07 5.000000e-07)	0	1.312201e+03	(1.005000e-04 3.050000e-05 5.000000e-07)	1
0.0143        	T             	7.730000e+02	(0.000000e+00 5.000000e-07 5.000000e-07)	0	1.315140e+03	(1.005000e-04 3.050000e-05 5.000000e-07)	1
0.0144        	T             	7.730000e+02	(0.000000e+00 5.000000e-07 5.000000e-07)	0	1.318060e+03	(1.005000e-04 3.050000e-05 5.000000e-07)	1
0.0145        	T             	7.730000e+02	(0.000000e+00 5.000000e-07 5.000000e-07)	0	1.320962e+03	(1.005000e-04 3.050000e-05 5.000000e-07)	1
0.0146        	T             	7.730000e+02	(0.000000e+00 5.000000e-07 5.000000e-07)	0	1.323847e+03	(1.005000e-04 3.050000e-05 5.000000e-07)	1
0.0147        	T             	7.730000e+02	(0.000000e+00 5.000000e-07 5.000000e-07)	0	1.326715e+03	(1.005000e-04 3.050000e-05 5.000000e-07)	1
0.0148        	T             	7.730000e+02	(0.000000e+00 5.000000e-07 5.000000e-07)	0	1.329565e+03	(1.005000e-04 3.050000e-05 5.000000e-07)	1
0.0149        	T             	7.730000e+02	(0.000000e+00 5.000000e-07 5.000000e-07)	0	1.332400e+03	(1.005000e-04 3.050000e-05 5.000000e-07)	1
0.015         	T             	7.730000e+02	(0.000000e+00 5.000000e-07 5.000000e-07)	0	1.335217e+03	(1.005000e-04 3.050000e-05 5.000000e-07)	1
0.0151        	T             	7.730000e+02	(0.000000e+00 5.000000e-07 5.000000e-07)	0	1.338018e+03	(1.005000e-04 3.050000e-05 5.000000e-07)	1
0.0152        	T             	7.730000e+02	(0.000000e+00 5.000000e-07 5.000000e-07)	0	1.340801e+03	(1.005000e-04 3.050000e-05 5.000000e-07)	1
0.0153        	T             	7.730000e+02	(0.000000e+00 5.000000e-07 5.000000e-07)	0	1.343566e+03	(1.005000e-04 3.050000e-05 5.000000e-07)	1
0.0154        	T             	7.730000e+02	(0.000000e+00 5.000000e-07 5.000000e-07)	0	1.346311e+03	(1.005000e-04 3.050000e-05 5.000000e-07)	1
0.0155        	T             	7.730000e+02	(0.000000e+00 5.000000e-07 5.000000e-07)	0	1.349032e+03	(1.005000e-04 3.050000e-05 5.000000e-07)	1
0.0156        	T             	7.730000e+02	(0.000000e+00 5.000000e-07 5.000000e-07)	0	1.351723e+03	(1.005000e-04 3.050000e-05 5.000000e-07)	1
0.0157        	T             	7.730000e+02	(0.000000e+00 5.000000e-07 5.000000e-07)	0	1.354376e+03	(1.005000e-04 3.050000e-05 5.000000e-07)	1
0.0158        	T             	7.730000e+02	(0.000000e+00 5.000000e-07 5.000000e-07)	0	1.356976e+03	(1.005000e-04 3.050000e-05 5.000000e-07)	1
0.0159        	T             	7.730000e+02	(0.000000e+00 5.000000e-07 5.000000e-07)	0	1.359502e+03	(1.005000e-04 4.950000e-05 5.000000e-07)	1
0.016         	T             	7.730000e+02	(0.000000e+00 5.000000e-07 5.000000e-07)	0	1.361923e+03	(1.005000e-04 4.950000e-05 5.000000e-07)	1
0.0161        	T             	7.730000e+02	(0.000000e+00 5.000000e-07 5.000000e-07)	0	1.364195e+03	(1.005000e-04 3.050000e-05 5.000000e-07)	1
0.0162        	T             	7.730000e+02	(0.000000e+00 5.000000e-07 5.000000e-07)	0	1.366267e+03	(1.005000e-04 4.950000e-05 5.000000e-07)	1
0.0163        	T             	7.730000e+02	(0.000000e+00 5.000000e-07 5.000000e-07)	0	1.368090e+03	(1.005000e-04 4.950000e-05 5.000000e-07)	1
0.0164        	T             	7.730000e+02	(0.000000e+00 5.000000e-07 5.000000e-07)	0	1.370108e+03	(1.005000e-04 3.150000e-05 5.000000e-07)	1
0.0165        	T             	7.730000e+02	(0.000000e+00 5.000000e-07 5.000000e-07)	0	1.372570e+03	(1.005000e-04 4.850000e-05 5.000000e-07)	1
0.0166        	T             	7.730000e+02	(0.000000e+00 5.000000e-07 5.000000e-07)	0	1.375020e+03	(1.005000e-04 3.150000e-05 5.000000e-07)	1
0.0167        	T             	7.730000e+02	(0.000000e+00 5.000000e-07 5.000000e-07)	0	1.377462e+03	(1.005000e-04 3.150000e-05 5.000000e-07)	1
0.0168        	T             	7.730000e+02	(0.000000e+00 5.000000e-07 5.000000e-07)	0	1.379897e+03	(1.005000e-04 3.150000e-05 5.000000e-07)	1
0.0169        	T             	7.730000e+02	(0.000000e+00 5.000000e-07 5.000000e-07)	0	1.382323e+03	(1.005000e-04 3.150000e-05 5.000000e-07)	1
0.017         	T             	7.730000e+02	(0.000000e+00 5.000000e-07 5.000000e-07)	0	1.384742e+03	(1.005000e-04 3.150000e-05 5.000000e-07)	1
0.0171        	T             	7.730000e+02	(0.000000e+00 5.000000e-07 5.000000e-07)	0	1.387152e+03	(1.005000e-04 3.150000e-05 5.000000e-07)	1
0.0172        	T             	7.730000e+02	(0.000000e+00 5.000000e-07 5.000000e-07)	0	1.389553e+03	(1.005000e-04 3.150000e-05 5.000000e-07)	1
0.0173        	T             	7.730000e+02	(0.000000e+00 5.000000e-07 5.000000e-07)	0	1.391944e+03	(1.005000e-04 3.150000e-05 5.000000e-07)	1
0.0174        	T             	7.730000e+02	(0.000000e+00 5.000000e-07 5.000000e-07)	0	1.394326e+03	(1.005000e-04 3.150000e-05 5.000000e-07)	1
0.0175        	T             	7.730000e+02	(0.000000e+00 5.000000e-07 5.000000e-07)	0	1.396697e+03	(1.005000e-04 3.150000e-05 5.000000e-07)	1
0.0176        	T             	7.730000e+02	(0.000000e+00 5.000000e-07 5.000000e-07)	0	1.399061e+03	(1.005000e-04 3.150000e-05 5.000000e-07)	1
0.0177        	T             	7.730000e+02	(0.000000e+00 5.000000e-07 5.000000e-07)	0	1.401416e+03	(1.005000e-04 3.150000e-05 5.000000e-07)	1
0.0178        	T             	7.730000e+02	(0.000000e+00 5.000000e-07 5.000000e-07)	0	1.403761e+03	(1.005000e-04 3.150000e-05 5.000000e-07)	1
0.0179        	T             	7.730000e+02	(0.000000e+00 5.000000e-07 5.000000e-07)	0	1.406095e+03	(1.005000e-04 3.150000e-05 5.000000e-07)	1
0.018         	T             	7.730000e+02	(0.000000e+00 5.000000e-07 5.000000e-07)	0	1.408420e+03	(1.005000e-04 3.150000e-05 5.000000e-07)	1
0.0181        	T             	7.730000e+02	(0.000000e+00 5.000000e-07 5.000000e-07)	0	1.410736e+03	(1.005000e-04 3.150000e-05 5.000000e-07)	1
0.0182        	T             	7.730000e+02	(0.000000e+00 5.000000e-07 5.000000e-07)	0	1.413043e+03	(1.005000e-04 3.150000e-05 5.000000e-07)	1
0.0183        	T             	7.730000e+02	(0.000000e+00 5.000000e-07 5.000000e-07)	0	1.415341e+03	(1.005000e-04 4.850000e-05 5.000000e-07)	1
0.0184        	T             	7.730000e+02	(0.000000e+00 5.000000e-07 5.000000e-07)	0	1.417631e+03	(1.005000e-04 4.850000e-05 5.000000e-07)	1
0.0185        	T             	7.730000e+02	(0.000000e+00 5.000000e-07 5.000000e-07)	0	1.419914e+03	(1.005000e-04 4.850000e-05 5.000000e-07)	1
0.0186        	T             	7.730000e+02	(0.000000e+00 5.000000e-07 5.000000e-07)	0	1.422190e+03	(1.005000e-04 4.850000e-05 5.000000e-07)	1
0.0187        	T             	7.730000e+02	(0.000000e+00 5.000000e-07 5.000000e-07)	0	1.424458e+03	(1.005000e-04 4.850000e-05 5.000000e-07)	1
0.0188        	T             	7.730000e+02	(0.000000e+00 5.000000e-07 5.000000e-07)	0	1.426720e+03	(1.005000e-04 4.850000e-05 5.000000e-07)	1
0.0189        	T             	7.730000e+02	(0.000000e+00 5.000000e-07 5.000000e-07)	0	1.428977e+03	(1.005000e-04 4.850000e-05 5.000000e-07)	1
0.019         	T             	7.730000e+02	(0.000000e+00 5.000000e-07 5.000000e-07)	0	1.431229e+03	(1.005000e-04 4.850000e-05 5.000000e-07)	1