# Field minima and maxima
# Time        	field         	min           	location(min) 	processor     	max           	location(max) 	processor     
1.199904e-06  	T             	7.729480e+02	(1.750000e-05 4.050000e-05 5.000000e-07)	0	7.730000e+02	(0.000000e+00 5.000000e-07 5.000000e-07)	0
2.639616e-06  	T             	7.729488e+02	(2.350000e-05 4.050000e-05 5.000000e-07)	0	7.730000e+02	(0.000000e+00 5.000000e-07 5.000000e-07)	0
4.367171e-06  	T             	7.729495e+02	(2.750000e-05 4.050000e-05 5.000000e-07)	0	7.730000e+02	(0.000000e+00 5.000000e-07 5.000000e-07)	0
6.440094e-06  	T             	7.729501e+02	(3.250000e-05 4.050000e-05 5.000000e-07)	0	7.730000e+02	(0.000000e+00 5.000000e-07 5.000000e-07)	0
8.927291e-06  	T             	7.729508e+02	(3.750000e-05 4.050000e-05 5.000000e-07)	0	7.730000e+02	(0.000000e+00 5.000000e-07 5.000000e-07)	0
1.191148e-05  	T             	7.729515e+02	(4.150000e-05 4.050000e-05 5.000000e-07)	0	7.730000e+02	(0.000000e+00 5.000000e-07 5.000000e-07)	0
1.549144e-05  	T             	7.729522e+02	(4.550000e-05 7.950000e-05 5.000000e-07)	0	7.730000e+02	(0.000000e+00 5.000000e-07 5.000000e-07)	0
1.978585e-05  	T             	7.729531e+02	(4.950000e-05 7.950000e-05 5.000000e-07)	0	7.730000e+02	(0.000000e+00 5.000000e-07 5.000000e-07)	0
2.493826e-05  	T             	7.729542e+02	(5.150000e-05 7.950000e-05 5.000000e-07)	0	7.730000e+02	(0.000000e+00 5.000000e-07 5.000000e-07)	0
3.11186e-05   	T             	7.729558e+02	(5.350000e-05 7.950000e-05 5.000000e-07)	1	7.730000e+02	(0.000000e+00 5.000000e-07 5.000000e-07)	0
3.853041e-05  	T             	7.729579e+02	(5.450000e-05 7.950000e-05 5.000000e-07)	1	7.730000e+02	(0.000000e+00 5.000000e-07 5.000000e-07)	0
4.742458e-05  	T             	7.729605e+02	(5.550000e-05 7.950000e-05 5.000000e-07)	1	7.730000e+02	(0.000000e+00 5.000000e-07 5.000000e-07)	0
5.809186e-05  	T             	7.729637e+02	(5.550000e-05 7.950000e-05 5.000000e-07)	1	7.730000e+02	(0.000000e+00 5.000000e-07 5.000000e-07)	0
7.088711e-05  	T             	7.729672e+02	(5.650000e-05 7.950000e-05 5.000000e-07)	1	7.730018e+02	(1.005000e-04 4.950000e-05 5.000000e-07)	1
8.62335e-05   	T             	7.729712e+02	(5.550000e-05 7.950000e-05 5.000000e-07)	1	7.730061e+02	(1.005000e-04 3.050000e-05 5.000000e-07)	1
0.0001046264  	T             	7.729757e+02	(5.550000e-05 7.950000e-05 5.000000e-07)	1	7.730147e+02	(1.005000e-04 3.050000e-05 5.000000e-07)	1
0.0001266651  	T             	7.729807e+02	(5.250000e-05 7.950000e-05 5.000000e-07)	0	7.730303e+02	(1.005000e-04 3.050000e-05 5.000000e-07)	1
0.0001530644  	T             	7.729865e+02	(4.750000e-05 7.950000e-05 5.000000e-07)	0	7.730569e+02	(1.005000e-04 3.050000e-05 5.000000e-07)	1
0.0001847265  	T             	7.729911e+02	(3.145000e-04 5.000000e-07 5.000000e-07)	5	7.731002e+02	(1.005000e-04 3.050000e-05 5.000000e-07)	1
0.0002226233  	T             	7.729918e+02	(3.225000e-04 5.000000e-07 5.000000e-07)	6	7.731680e+02	(1.005000e-04 3.050000e-05 5.000000e-07)	1
0.0002680995  	T             	7.729924e+02	(3.335000e-04 5.000000e-07 5.000000e-07)	6	7.732715e+02	(1.005000e-04 3.050000e-05 5.000000e-07)	1
0.0003224677  	T             	7.729929e+02	(3.505000e-04 5.000000e-07 5.000000e-07)	6	7.734253e+02	(1.005000e-04 3.050000e-05 5.000000e-07)	1
0.0003874176  	T             	7.729933e+02	(3.905000e-04 1.050000e-05 5.000000e-07)	7	7.736490e+02	(1.005000e-04 3.050000e-05 5.000000e-07)	1
0.0004649384  	T             	7.729935e+02	(4.195000e-04 1.500000e-06 5.000000e-07)	7	7.739684e+02	(1.005000e-04 3.050000e-05 5.000000e-07)	1
0.0005575118  	T             	7.729944e+02	(4.195000e-04 5.000000e-07 5.000000e-07)	7	7.744173e+02	(1.005000e-04 3.050000e-05 5.000000e-07)	1
0.0006569064  	T             	7.729965e+02	(4.195000e-04 5.000000e-07 5.000000e-07)	7	7.749692e+02	(1.005000e-04 3.050000e-05 5.000000e-07)	1
0.000756301   	T             	7.730000e+02	(0.000000e+00 5.000000e-07 5.000000e-07)	0	7.755845e+02	(1.005000e-04 3.050000e-05 5.000000e-07)	1
0.0008556956  	T             	7.730000e+02	(0.000000e+00 5.000000e-07 5.000000e-07)	0	7.762576e+02	(1.005000e-04 3.050000e-05 5.000000e-07)	1
0.0009550903  	T             	7.730000e+02	(0.000000e+00 5.000000e-07 5.000000e-07)	0	7.769842e+02	(1.005000e-04 3.050000e-05 5.000000e-07)	1
0.001054485   	T             	7.730000e+02	(0.000000e+00 5.000000e-07 5.000000e-07)	0	7.777605e+02	(1.005000e-04 3.050000e-05 5.000000e-07)	1
0.001153879   	T             	7.730000e+02	(0.000000e+00 5.000000e-07 5.000000e-07)	0	7.785837e+02	(1.005000e-04 3.050000e-05 5.000000e-07)	1
0.001253274   	T             	7.730000e+02	(0.000000e+00 5.000000e-07 5.000000e-07)	0	7.794515e+02	(1.005000e-04 3.050000e-05 5.000000e-07)	1
0.001352669   	T             	7.730000e+02	(0.000000e+00 5.000000e-07 5.000000e-07)	0	7.803622e+02	(1.005000e-04 3.050000e-05 5.000000e-07)	1
0.001452063   	T             	7.730000e+02	(0.000000e+00 5.000000e-07 5.000000e-07)	0	7.813145e+02	(1.005000e-04 3.050000e-05 5.000000e-07)	1
0.001551458   	T             	7.730000e+02	(0.000000e+00 5.000000e-07 5.000000e-07)	0	7.823075e+02	(1.005000e-04 3.050000e-05 5.000000e-07)	1
0.001650853   	T             	7.730000e+02	(0.000000e+00 5.000000e-07 5.000000e-07)	0	7.833407e+02	(1.005000e-04 3.050000e-05 5.000000e-07)	1
0.001750247   	T             	7.730000e+02	(0.000000e+00 5.000000e-07 5.000000e-07)	0	7.844137e+02	(1.005000e-04 3.050000e-05 5.000000e-07)	1
0.001849642   	T             	7.730000e+02	(0.000000e+00 5.000000e-07 5.000000e-07)	0	7.855267e+02	(1.005000e-04 3.050000e-05 5.000000e-07)	1
0.001949036   	T             	7.730000e+02	(0.000000e+00 5.000000e-07 5.000000e-07)	0	7.866800e+02	(1.005000e-04 3.050000e-05 5.000000e-07)	1
0.002048431   	T             	7.730000e+02	(0.000000e+00 5.000000e-07 5.000000e-07)	0	7.878740e+02	(1.005000e-04 3.050000e-05 5.000000e-07)	1
0.002147826   	T             	7.730000e+02	(0.000000e+00 5.000000e-07 5.000000e-07)	0	7.891095e+02	(1.005000e-04 3.050000e-05 5.000000e-07)	1
0.00224722    	T             	7.730000e+02	(0.000000e+00 5.000000e-07 5.000000e-07)	0	7.903875e+02	(1.005000e-04 3.050000e-05 5.000000e-07)	1
0.002346615   	T             	7.730000e+02	(0.000000e+00 5.000000e-07 5.000000e-07)	0	7.917092e+02	(1.005000e-04 3.050000e-05 5.000000e-07)	1
0.002446009   	T             	7.730000e+02	(0.000000e+00 5.000000e-07 5.000000e-07)	0	7.930760e+02	(1.005000e-04 3.050000e-05 5.000000e-07)	1
0.002545404   	T             	7.730000e+02	(0.000000e+00 5.000000e-07 5.000000e-07)	0	7.944894e+02	(1.005000e-04 3.050000e-05 5.000000e-07)	1
0.002644799   	T             	7.730000e+02	(0.000000e+00 5.000000e-07 5.000000e-07)	0	7.959513e+02	(1.005000e-04 3.050000e-05 5.000000e-07)	1
0.002744193   	T             	7.730000e+02	(0.000000e+00 5.000000e-07 5.000000e-07)	0	7.974638e+02	(1.005000e-04 3.050000e-05 5.000000e-07)	1
0.002843588   	T             	7.730000e+02	(0.000000e+00 5.000000e-07 5.000000e-07)	0	7.990291e+02	(1.005000e-04 3.050000e-05 5.000000e-07)	1
0.002942983   	T             	7.730000e+02	(0.000000e+00 5.000000e-07 5.000000e-07)	0	8.006498e+02	(1.005000e-04 3.050000e-05 5.000000e-07)	1
0.003042377   	T             	7.730000e+02	(0.000000e+00 5.000000e-07 5.000000e-07)	0	8.023286e+02	(1.005000e-04 3.050000e-05 5.000000e-07)	1
0.003141772   	T             	7.730000e+02	(0.000000e+00 5.000000e-07 5.000000e-07)	0	8.040686e+02	(1.005000e-04 3.050000e-05 5.000000e-07)	1
0.003241166   	T             	7.730000e+02	(0.000000e+00 5.000000e-07 5.000000e-07)	0	8.058733e+02	(1.005000e-04 3.050000e-05 5.000000e-07)	1
0.003340561   	T             	7.730000e+02	(0.000000e+00 5.000000e-07 5.000000e-07)	0	8.077463e+02	(1.005000e-04 3.050000e-05 5.000000e-07)	1
0.003439956   	T             	7.730000e+02	(0.000000e+00 5.000000e-07 5.000000e-07)	0	8.096916e+02	(1.005000e-04 3.050000e-05 5.000000e-07)	1
0.00353935    	T             	7.730000e+02	(0.000000e+00 5.000000e-07 5.000000e-07)	0	8.117137e+02	(1.005000e-04 3.050000e-05 5.000000e-07)	1
0.003638745   	T             	7.730000e+02	(0.000000e+00 5.000000e-07 5.000000e-07)	0	8.138175e+02	(1.005000e-04 3.050000e-05 5.000000e-07)	1
0.003738139   	T             	7.730000e+02	(0.000000e+00 5.000000e-07 5.000000e-07)	0	8.160081e+02	(1.005000e-04 3.050000e-05 5.000000e-07)	1
0.003837534   	T             	7.730000e+02	(0.000000e+00 5.000000e-07 5.000000e-07)	0	8.182914e+02	(1.005000e-04 3.050000e-05 5.000000e-07)	1
0.003936929   	T             	7.730000e+02	(0.000000e+00 5.000000e-07 5.000000e-07)	0	8.206737e+02	(1.005000e-04 3.050000e-05 5.000000e-07)	1
0.004036323   	T             	7.730000e+02	(0.000000e+00 5.000000e-07 5.000000e-07)	0	8.231617e+02	(1.005000e-04 3.050000e-05 5.000000e-07)	1
0.004135718   	T             	7.730000e+02	(0.000000e+00 5.000000e-07 5.000000e-07)	0	8.257631e+02	(1.005000e-04 3.050000e-05 5.000000e-07)	1
0.004235112   	T             	7.730000e+02	(0.000000e+00 5.000000e-07 5.000000e-07)	0	8.284857e+02	(1.005000e-04 3.050000e-05 5.000000e-07)	1
0.004334507   	T             	7.730000e+02	(0.000000e+00 5.000000e-07 5.000000e-07)	0	8.313385e+02	(1.005000e-04 3.050000e-05 5.000000e-07)	1
0.004433902   	T             	7.730000e+02	(0.000000e+00 5.000000e-07 5.000000e-07)	0	8.343309e+02	(1.005000e-04 3.050000e-05 5.000000e-07)	1
0.004533296   	T             	7.730000e+02	(0.000000e+00 5.000000e-07 5.000000e-07)	0	8.374732e+02	(1.005000e-04 3.050000e-05 5.000000e-07)	1
0.004632691   	T             	7.730000e+02	(0.000000e+00 5.000000e-07 5.000000e-07)	0	8.407762e+02	(1.005000e-04 3.050000e-05 5.000000e-07)	1
0.004732086   	T             	7.730000e+02	(0.000000e+00 5.000000e-07 5.000000e-07)	0	8.442515e+02	(1.005000e-04 3.050000e-05 5.000000e-07)	1
0.00483148    	T             	7.730000e+02	(0.000000e+00 5.000000e-07 5.000000e-07)	0	8.479114e+02	(1.005000e-04 3.050000e-05 5.000000e-07)	1
0.004930875   	T             	7.730000e+02	(0.000000e+00 5.000000e-07 5.000000e-07)	0	8.517685e+02	(1.005000e-04 3.050000e-05 5.000000e-07)	1
0.005030269   	T             	7.730000e+02	(0.000000e+00 5.000000e-07 5.000000e-07)	0	8.558358e+02	(1.005000e-04 3.050000e-05 5.000000e-07)	1
0.005129664   	T             	7.730000e+02	(0.000000e+00 5.000000e-07 5.000000e-07)	0	8.601261e+02	(1.005000e-04 3.050000e-05 5.000000e-07)	1
0.005229059   	T             	7.730000e+02	(0.000000e+00 5.000000e-07 5.000000e-07)	0	8.646517e+02	(1.005000e-04 3.050000e-05 5.000000e-07)	1
0.005328453   	T             	7.730000e+02	(0.000000e+00 5.000000e-07 5.000000e-07)	0	8.694239e+02	(1.005000e-04 3.050000e-05 5.000000e-07)	1
0.005427848   	T             	7.730000e+02	(0.000000e+00 5.000000e-07 5.000000e-07)	0	8.744518e+02	(1.005000e-04 3.050000e-05 5.000000e-07)	1
0.005527242   	T             	7.730000e+02	(0.000000e+00 5.000000e-07 5.000000e-07)	0	8.797420e+02	(1.005000e-04 3.050000e-05 5.000000e-07)	1
0.005626637   	T             	7.730000e+02	(0.000000e+00 5.000000e-07 5.000000e-07)	0	8.852972e+02	(1.005000e-04 3.050000e-05 5.000000e-07)	1
0.005726032   	T             	7.730000e+02	(0.000000e+00 5.000000e-07 5.000000e-07)	0	8.911152e+02	(1.005000e-04 3.050000e-05 5.000000e-07)	1
0.005825426   	T             	7.730000e+02	(0.000000e+00 5.000000e-07 5.000000e-07)	0	8.971880e+02	(1.005000e-04 3.050000e-05 5.000000e-07)	1
0.005924821   	T             	7.730000e+02	(0.000000e+00 5.000000e-07 5.000000e-07)	0	9.035013e+02	(1.005000e-04 3.050000e-05 5.000000e-07)	1
0.006024215   	T             	7.730000e+02	(0.000000e+00 5.000000e-07 5.000000e-07)	0	9.100339e+02	(1.005000e-04 3.050000e-05 5.000000e-07)	1
0.00612361    	T             	7.730000e+02	(0.000000e+00 5.000000e-07 5.000000e-07)	0	9.167586e+02	(1.005000e-04 3.050000e-05 5.000000e-07)	1
0.006223005   	T             	7.730000e+02	(0.000000e+00 5.000000e-07 5.000000e-07)	0	9.236433e+02	(1.005000e-04 3.050000e-05 5.000000e-07)	1
0.006322399   	T             	7.730000e+02	(0.000000e+00 5.000000e-07 5.000000e-07)	0	9.306523e+02	(1.005000e-04 3.050000e-05 5.000000e-07)	1
0.006421794   	T             	7.730000e+02	(0.000000e+00 5.000000e-07 5.000000e-07)	0	9.377488e+02	(1.005000e-04 3.050000e-05 5.000000e-07)	1
0.006521189   	T             	7.730000e+02	(0.000000e+00 5.000000e-07 5.000000e-07)	0	9.448970e+02	(1.005000e-04 3.050000e-05 5.000000e-07)	1
0.006620583   	T             	7.730000e+02	(0.000000e+00 5.000000e-07 5.000000e-07)	0	9.520639e+02	(1.005000e-04 3.050000e-05 5.000000e-07)	1
0.006719978   	T             	7.730000e+02	(0.000000e+00 5.000000e-07 5.000000e-07)	0	9.592200e+02	(1.005000e-04 3.050000e-05 5.000000e-07)	1
0.006819372   	T             	7.730000e+02	(0.000000e+00 5.000000e-07 5.000000e-07)	0	9.663410e+02	(1.005000e-04 3.050000e-05 5.000000e-07)	1
0.006918767   	T             	7.730000e+02	(0.000000e+00 5.000000e-07 5.000000e-07)	0	9.734075e+02	(1.005000e-04 3.050000e-05 5.000000e-07)	1
0.007018162   	T             	7.730000e+02	(0.000000e+00 5.000000e-07 5.000000e-07)	0	9.804046e+02	(1.005000e-04 3.050000e-05 5.000000e-07)	1
0.007117556   	T             	7.730000e+02	(0.000000e+00 5.000000e-07 5.000000e-07)	0	9.873215e+02	(1.005000e-04 3.050000e-05 5.000000e-07)	1
0.007216951   	T             	7.730000e+02	(0.000000e+00 5.000000e-07 5.000000e-07)	0	9.941503e+02	(1.005000e-04 3.050000e-05 5.000000e-07)	1
0.007316345   	T             	7.730000e+02	(0.000000e+00 5.000000e-07 5.000000e-07)	0	1.000886e+03	(1.005000e-04 3.050000e-05 5.000000e-07)	1
0.00741574    	T             	7.730000e+02	(0.000000e+00 5.000000e-07 5.000000e-07)	0	1.007526e+03	(1.005000e-04 3.050000e-05 5.000000e-07)	1
0.007515135   	T             	7.730000e+02	(0.000000e+00 5.000000e-07 5.000000e-07)	0	1.014069e+03	(1.005000e-04 3.050000e-05 5.000000e-07)	1
0.007614529   	T             	7.730000e+02	(0.000000e+00 5.000000e-07 5.000000e-07)	0	1.020514e+03	(1.005000e-04 3.050000e-05 5.000000e-07)	1
0.007713924   	T             	7.730000e+02	(0.000000e+00 5.000000e-07 5.000000e-07)	0	1.026862e+03	(1.005000e-04 3.050000e-05 5.000000e-07)	1
0.007813319   	T             	7.730000e+02	(0.000000e+00 5.000000e-07 5.000000e-07)	0	1.033114e+03	(1.005000e-04 3.050000e-05 5.000000e-07)	1
0.007912713   	T             	7.730000e+02	(0.000000e+00 5.000000e-07 5.000000e-07)	0	1.039270e+03	(1.005000e-04 3.050000e-05 5.000000e-07)	1
0.008012108   	T             	7.730000e+02	(0.000000e+00 5.000000e-07 5.000000e-07)	0	1.045333e+03	(1.005000e-04 3.050000e-05 5.000000e-07)	1
0.008111502   	T             	7.730000e+02	(0.000000e+00 5.000000e-07 5.000000e-07)	0	1.051304e+03	(1.005000e-04 3.050000e-05 5.000000e-07)	1
0.008210897   	T             	7.730000e+02	(0.000000e+00 5.000000e-07 5.000000e-07)	0	1.057184e+03	(1.005000e-04 3.050000e-05 5.000000e-07)	1
0.008310292   	T             	7.730000e+02	(0.000000e+00 5.000000e-07 5.000000e-07)	0	1.062976e+03	(1.005000e-04 3.050000e-05 5.000000e-07)	1
0.008409686   	T             	7.730000e+02	(0.000000e+00 5.000000e-07 5.000000e-07)	0	1.068680e+03	(1.005000e-04 3.050000e-05 5.000000e-07)	1
0.008509081   	T             	7.730000e+02	(0.000000e+00 5.000000e-07 5.000000e-07)	0	1.074300e+03	(1.005000e-04 3.050000e-05 5.000000e-07)	1
0.008608475   	T             	7.730000e+02	(0.000000e+00 5.000000e-07 5.000000e-07)	0	1.079836e+03	(1.005000e-04 3.050000e-05 5.000000e-07)	1
0.00870787    	T             	7.730000e+02	(0.000000e+00 5.000000e-07 5.000000e-07)	0	1.085290e+03	(1.005000e-04 3.050000e-05 5.000000e-07)	1
0.008807265   	T             	7.730000e+02	(0.000000e+00 5.000000e-07 5.000000e-07)	0	1.090665e+03	(1.005000e-04 3.050000e-05 5.000000e-07)	1
0.008906659   	T             	7.730000e+02	(0.000000e+00 5.000000e-07 5.000000e-07)	0	1.095962e+03	(1.005000e-04 3.050000e-05 5.000000e-07)	1
0.009006054   	T             	7.730000e+02	(0.000000e+00 5.000000e-07 5.000000e-07)	0	1.101182e+03	(1.005000e-04 3.050000e-05 5.000000e-07)	1
0.009105448   	T             	7.730000e+02	(0.000000e+00 5.000000e-07 5.000000e-07)	0	1.106328e+03	(1.005000e-04 3.050000e-05 5.000000e-07)	1
0.009204843   	T             	7.730000e+02	(0.000000e+00 5.000000e-07 5.000000e-07)	0	1.111401e+03	(1.005000e-04 3.050000e-05 5.000000e-07)	1
0.009304238   	T             	7.730000e+02	(0.000000e+00 5.000000e-07 5.000000e-07)	0	1.116403e+03	(1.005000e-04 3.050000e-05 5.000000e-07)	1
0.009403632   	T             	7.730000e+02	(0.000000e+00 5.000000e-07 5.000000e-07)	0	1.121335e+03	(1.005000e-04 3.050000e-05 5.000000e-07)	1
0.009503027   	T             	7.730000e+02	(0.000000e+00 5.000000e-07 5.000000e-07)	0	1.126199e+03	(1.005000e-04 3.050000e-05 5.000000e-07)	1
0.009602422   	T             	7.730000e+02	(0.000000e+00 5.000000e-07 5.000000e-07)	0	1.130997e+03	(1.005000e-04 3.050000e-05 5.000000e-07)	1
0.009701816   	T             	7.730000e+02	(0.000000e+00 5.000000e-07 5.000000e-07)	0	1.135731e+03	(1.005000e-04 3.050000e-05 5.000000e-07)	1
0.009801211   	T             	7.730000e+02	(0.000000e+00 5.000000e-07 5.000000e-07)	0	1.140401e+03	(1.005000e-04 3.050000e-05 5.000000e-07)	1
0.009900605   	T             	7.730000e+02	(0.000000e+00 5.000000e-07 5.000000e-07)	0	1.145010e+03	(1.005000e-04 3.050000e-05 5.000000e-07)	1
0.01          	T             	7.730000e+02	(0.000000e+00 5.000000e-07 5.000000e-07)	0	1.149559e+03	(1.005000e-04 3.050000e-05 5.000000e-07)	1
0.0101        	T             	7.730000e+02	(0.000000e+00 5.000000e-07 5.000000e-07)	0	1.154076e+03	(1.005000e-04 3.050000e-05 5.000000e-07)	1
0.0102        	T             	7.730000e+02	(0.000000e+00 5.000000e-07 5.000000e-07)	0	1.158536e+03	(1.005000e-04 3.050000e-05 5.000000e-07)	1
0.0103        	T             	7.730000e+02	(0.000000e+00 5.000000e-07 5.000000e-07)	0	1.162939e+03	(1.005000e-04 3.050000e-05 5.000000e-07)	1
0.0104        	T             	7.730000e+02	(0.000000e+00 5.000000e-07 5.000000e-07)	0	1.167288e+03	(1.005000e-04 3.050000e-05 5.000000e-07)	1
0.0105        	T             	7.730000e+02	(0.000000e+00 5.000000e-07 5.000000e-07)	0	1.171583e+03	(1.005000e-04 3.050000e-05 5.000000e-07)	1
0.0106        	T             	7.730000e+02	(0.000000e+00 5.000000e-07 5.000000e-07)	0	1.175826e+03	(1.005000e-04 3.050000e-05 5.000000e-07)	1
0.0107        	T             	7.730000e+02	(0.000000e+00 5.000000e-07 5.000000e-07)	0	1.180018e+03	(1.005000e-04 3.050000e-05 5.000000e-07)	1
0.0108        	T             	7.730000e+02	(0.000000e+00 5.000000e-07 5.000000e-07)	0	1.184160e+03	(1.005000e-04 3.050000e-05 5.000000e-07)	1
0.0109        	T             	7.730000e+02	(0.000000e+00 5.000000e-07 5.000000e-07)	0	1.188255e+03	(1.005000e-04 3.050000e-05 5.000000e-07)	1
0.011         	T             	7.730000e+02	(0.000000e+00 5.000000e-07 5.000000e-07)	0	1.192302e+03	(1.005000e-04 3.050000e-05 5.000000e-07)	1
0.0111        	T             	7.730000e+02	(0.000000e+00 5.000000e-07 5.000000e-07)	0	1.196303e+03	(1.005000e-04 3.050000e-05 5.000000e-07)	1
0.0112        	T             	7.730000e+02	(0.000000e+00 5.000000e-07 5.000000e-07)	0	1.200260e+03	(1.005000e-04 3.050000e-05 5.000000e-07)	1
0.0113        	T             	7.730000e+02	(0.000000e+00 5.000000e-07 5.000000e-07)	0	1.204173e+03	(1.005000e-04 3.050000e-05 5.000000e-07)	1
0.0114        	T             	7.730000e+02	(0.000000e+00 5.000000e-07 5.000000e-07)	0	1.208043e+03	(1.005000e-04 3.050000e-05 5.000000e-07)	1
0.0115        	T             	7.730000e+02	(0.000000e+00 5.000000e-07 5.000000e-07)	0	1.211872e+03	(1.005000e-04 3.050000e-05 5.000000e-07)	1
0.0116        	T             	7.730000e+02	(0.000000e+00 5.000000e-07 5.000000e-07)	0	1.215660e+03	(1.005000e-04 3.050000e-05 5.000000e-07)	1
0.0117        	T             	7.730000e+02	(0.000000e+00 5.000000e-07 5.000000e-07)	0	1.219409e+03	(1.005000e-04 3.050000e-05 5.000000e-07)	1
0.0118        	T             	7.730000e+02	(0.000000e+00 5.000000e-07 5.000000e-07)	0	1.223119e+03	(1.005000e-04 3.050000e-05 5.000000e-07)	1
0.0119        	T             	7.730000e+02	(0.000000e+00 5.000000e-07 5.000000e-07)	0	1.226791e+03	(1.005000e-04 3.050000e-05 5.000000e-07)	1
0.012         	T             	7.730000e+02	(0.000000e+00 5.000000e-07 5.000000e-07)	0	1.230427e+03	(1.005000e-04 3.050000e-05 5.000000e-07)	1
0.0121        	T             	7.730000e+02	(0.000000e+00 5.000000e-07 5.000000e-07)	0	1.234026e+03	(1.005000e-04 3.050000e-05 5.000000e-07)	1
0.0122        	T             	7.730000e+02	(0.000000e+00 5.000000e-07 5.000000e-07)	0	1.237591e+03	(1.005000e-04 3.050000e-05 5.000000e-07)	1
0.0123        	T             	7.730000e+02	(0.000000e+00 5.000000e-07 5.000000e-07)	0	1.241121e+03	(1.005000e-04 3.050000e-05 5.000000e-07)	1
0.0124        	T             	7.730000e+02	(0.000000e+00 5.000000e-07 5.000000e-07)	0	1.244618e+03	(1.005000e-04 3.050000e-05 5.000000e-07)	1
0.0125        	T             	7.730000e+02	(0.000000e+00 5.000000e-07 5.000000e-07)	0	1.248081e+03	(1.005000e-04 3.050000e-05 5.000000e-07)	1
0.0126        	T             	7.730000e+02	(0.000000e+00 5.000000e-07 5.000000e-07)	0	1.251513e+03	(1.005000e-04 3.050000e-05 5.000000e-07)	1
0.0127        	T             	7.730000e+02	(0.000000e+00 5.000000e-07 5.000000e-07)	0	1.254913e+03	(1.005000e-04 3.050000e-05 5.000000e-07)	1
0.0128        	T             	7.730000e+02	(0.000000e+00 5.000000e-07 5.000000e-07)	0	1.258283e+03	(1.005000e-04 3.050000e-05 5.000000e-07)	1
0.0129        	T             	7.730000e+02	(0.000000e+00 5.000000e-07 5.000000e-07)	0	1.261623e+03	(1.005000e-04 3.050000e-05 5.000000e-07)	1
0.013         	T             	7.730000e+02	(0.000000e+00 5.000000e-07 5.000000e-07)	0	1.264933e+03	(1.005000e-04 3.050000e-05 5.000000e-07)	1
0.0131        	T             	7.730000e+02	(0.000000e+00 5.000000e-07 5.000000e-07)	0	1.268214e+03	(1.005000e-04 3.050000e-05 5.000000e-07)	1
0.0132        	T             	7.730000e+02	(0.000000e+00 5.000000e-07 5.000000e-07)	0	1.271467e+03	(1.005000e-04 3.050000e-05 5.000000e-07)	1
0.0133        	T             	7.730000e+02	(0.000000e+00 5.000000e-07 5.000000e-07)	0	1.274692e+03	(1.005000e-04 3.050000e-05 5.000000e-07)	1
0.0134        	T             	7.730000e+02	(0.000000e+00 5.000000e-07 5.000000e-07)	0	1.277889e+03	(1.005000e-04 3.050000e-05 5.000000e-07)	1
0.0135        	T             	7.730000e+02	(0.000000e+00 5.000000e-07 5.000000e-07)	0	1.281061e+03	(1.005000e-04 3.050000e-05 5.000000e-07)	1
0.0136        	T             	7.730000e+02	(0.000000e+00 5.000000e-07 5.000000e-07)	0	1.284206e+03	(1.005000e-04 3.050000e-05 5.000000e-07)	1
0.0137        	T             	7.730000e+02	(0.000000e+00 5.000000e-07 5.000000e-07)	0	1.287325e+03	(1.005000e-04 3.050000e-05 5.000000e-07)	1
0.0138        	T             	7.730000e+02	(0.000000e+00 5.000000e-07 5.000000e-07)	0	1.290418e+03	(1.005000e-04 3.050000e-05 5.000000e-07)	1
0.0139        	T             	7.730000e+02	(0.000000e+00 5.000000e-07 5.000000e-07)	0	1.293487e+03	(1.005000e-04 3.050000e-05 5.000000e-07)	1
0.014         	T             	7.730000e+02	(0.000000e+00 5.000000e-07 5.000000e-07)	0	1.296532e+03	(1.005000e-04 3.050000e-05 5.000000e-07)	1
0.0141        	T             	7.730000e+02	(0.000000e+00 5.000000e-07 5.000000e-07)	0	1.299552e+03	(1.005000e-04 3.050000e-05 5.000000e-07)	1
0.0142        	T             	7.730000e+02	(0.000000e+00 5.000000e-07 5.000000e-07)	0	1.302548e+03	(1.005000e-04 3.050000e-05 5.000000e-07)	1
0.0143        	T             	7.730000e+02	(0.000000e+00 5.000000e-07 5.000000e-07)	0	1.305521e+03	(1.005000e-04 3.050000e-05 5.000000e-07)	1
0.0144        	T             	7.730000e+02	(0.000000e+00 5.000000e-07 5.000000e-07)	0	1.308471e+03	(1.005000e-04 3.050000e-05 5.000000e-07)	1
0.0145        	T             	7.730000e+02	(0.000000e+00 5.000000e-07 5.000000e-07)	0	1.311398e+03	(1.005000e-04 3.050000e-05 5.000000e-07)	1
0.0146        	T             	7.730000e+02	(0.000000e+00 5.000000e-07 5.000000e-07)	0	1.314302e+03	(1.005000e-04 3.050000e-05 5.000000e-07)	1
0.0147        	T             	7.730000e+02	(0.000000e+00 5.000000e-07 5.000000e-07)	0	1.317183e+03	(1.005000e-04 3.050000e-05 5.000000e-07)	1
0.0148        	T             	7.730000e+02	(0.000000e+00 5.000000e-07 5.000000e-07)	0	1.320043e+03	(1.005000e-04 3.050000e-05 5.000000e-07)	1
0.0149        	T             	7.730000e+02	(0.000000e+00 5.000000e-07 5.000000e-07)	0	1.322881e+03	(1.005000e-04 3.050000e-05 5.000000e-07)	1
0.015         	T             	7.730000e+02	(0.000000e+00 5.000000e-07 5.000000e-07)	0	1.325696e+03	(1.005000e-04 3.050000e-05 5.000000e-07)	1
0.0151        	T             	7.730000e+02	(0.000000e+00 5.000000e-07 5.000000e-07)	0	1.328490e+03	(1.005000e-04 3.050000e-05 5.000000e-07)	1
0.0152        	T             	7.730000e+02	(0.000000e+00 5.000000e-07 5.000000e-07)	0	1.331262e+03	(1.005000e-04 3.050000e-05 5.000000e-07)	1
0.0153        	T             	7.730000e+02	(0.000000e+00 5.000000e-07 5.000000e-07)	0	1.334013e+03	(1.005000e-04 3.050000e-05 5.000000e-07)	1
0.0154        	T             	7.730000e+02	(0.000000e+00 5.000000e-07 5.000000e-07)	0	1.336742e+03	(1.005000e-04 3.050000e-05 5.000000e-07)	1
0.0155        	T             	7.730000e+02	(0.000000e+00 5.000000e-07 5.000000e-07)	0	1.339449e+03	(1.005000e-04 3.050000e-05 5.000000e-07)	1
0.0156        	T             	7.730000e+02	(0.000000e+00 5.000000e-07 5.000000e-07)	0	1.342134e+03	(1.005000e-04 3.050000e-05 5.000000e-07)	1
0.0157        	T             	7.730000e+02	(0.000000e+00 5.000000e-07 5.000000e-07)	0	1.344798e+03	(1.005000e-04 3.050000e-05 5.000000e-07)	1
0.0158        	T             	7.730000e+02	(0.000000e+00 5.000000e-07 5.000000e-07)	0	1.347439e+03	(1.005000e-04 4.950000e-05 5.000000e-07)	1
0.0159        	T             	7.730000e+02	(0.000000e+00 5.000000e-07 5.000000e-07)	0	1.350059e+03	(1.005000e-04 3.050000e-05 5.000000e-07)	1
0.016         	T             	7.730000e+02	(0.000000e+00 5.000000e-07 5.000000e-07)	0	1.352656e+03	(1.005000e-04 4.950000e-05 5.000000e-07)	1
0.0161        	T             	7.730000e+02	(0.000000e+00 5.000000e-07 5.000000e-07)	0	1.355230e+03	(1.005000e-04 3.050000e-05 5.000000e-07)	1
0.0162        	T             	7.730000e+02	(0.000000e+00 5.000000e-07 5.000000e-07)	0	1.357781e+03	(1.005000e-04 3.050000e-05 5.000000e-07)	1
0.0163        	T             	7.730000e+02	(0.000000e+00 5.000000e-07 5.000000e-07)	0	1.360309e+03	(1.005000e-04 4.950000e-05 5.000000e-07)	1
0.0164        	T             	7.730000e+02	(0.000000e+00 5.000000e-07 5.000000e-07)	0	1.362813e+03	(1.005000e-04 3.050000e-05 5.000000e-07)	1
0.0165        	T             	7.730000e+02	(0.000000e+00 5.000000e-07 5.000000e-07)	0	1.365293e+03	(1.005000e-04 3.050000e-05 5.000000e-07)	1
0.0166        	T             	7.730000e+02	(0.000000e+00 5.000000e-07 5.000000e-07)	0	1.367749e+03	(1.005000e-04 4.950000e-05 5.000000e-07)	1
0.0167        	T             	7.730000e+02	(0.000000e+00 5.000000e-07 5.000000e-07)	0	1.370196e+03	(1.005000e-04 3.150000e-05 5.000000e-07)	1
0.0168        	T             	7.730000e+02	(0.000000e+00 5.000000e-07 5.000000e-07)	0	1.372699e+03	(1.005000e-04 3.150000e-05 5.000000e-07)	1
0.0169        	T             	7.730000e+02	(0.000000e+00 5.000000e-07 5.000000e-07)	0	1.375187e+03	(1.005000e-04 3.150000e-05 5.000000e-07)	1
0.017         	T             	7.730000e+02	(0.000000e+00 5.000000e-07 5.000000e-07)	0	1.377660e+03	(1.005000e-04 3.150000e-05 5.000000e-07)	1
0.0171        	T             	7.730000e+02	(0.000000e+00 5.000000e-07 5.000000e-07)	0	1.380119e+03	(1.005000e-04 3.150000e-05 5.000000e-07)	1
0.0172        	T             	7.730000e+02	(0.000000e+00 5.000000e-07 5.000000e-07)	0	1.382564e+03	(1.005000e-04 3.150000e-05 5.000000e-07)	1
0.0173        	T             	7.730000e+02	(0.000000e+00 5.000000e-07 5.000000e-07)	0	1.384996e+03	(1.005000e-04 3.150000e-05 5.000000e-07)	1
0.0174        	T             	7.730000e+02	(0.000000e+00 5.000000e-07 5.000000e-07)	0	1.387414e+03	(1.005000e-04 3.150000e-05 5.000000e-07)	1
0.0175        	T             	7.730000e+02	(0.000000e+00 5.000000e-07 5.000000e-07)	0	1.389820e+03	(1.005000e-04 3.150000e-05 5.000000e-07)	1
0.0176        	T             	7.730000e+02	(0.000000e+00 5.000000e-07 5.000000e-07)	0	1.392212e+03	(1.005000e-04 3.150000e-05 5.000000e-07)	1
0.0177        	T             	7.730000e+02	(0.000000e+00 5.000000e-07 5.000000e-07)	0	1.394593e+03	(1.005000e-04 3.150000e-05 5.000000e-07)	1
0.0178        	T             	7.730000e+02	(0.000000e+00 5.000000e-07 5.000000e-07)	0	1.396962e+03	(1.005000e-04 3.150000e-05 5.000000e-07)	1
0.0179        	T             	7.730000e+02	(0.000000e+00 5.000000e-07 5.000000e-07)	0	1.399318e+03	(1.005000e-04 3.150000e-05 5.000000e-07)	1
0.018         	T             	7.730000e+02	(0.000000e+00 5.000000e-07 5.000000e-07)	0	1.401664e+03	(1.005000e-04 3.150000e-05 5.000000e-07)	1
0.0181        	T             	7.730000e+02	(0.000000e+00 5.000000e-07 5.000000e-07)	0	1.403999e+03	(1.005000e-04 3.150000e-05 5.000000e-07)	1
0.0182        	T             	7.730000e+02	(0.000000e+00 5.000000e-07 5.000000e-07)	0	1.406322e+03	(1.005000e-04 3.150000e-05 5.000000e-07)	1
0.0183        	T             	7.730000e+02	(0.000000e+00 5.000000e-07 5.000000e-07)	0	1.408635e+03	(1.005000e-04 3.150000e-05 5.000000e-07)	1
0.0184        	T             	7.730000e+02	(0.000000e+00 5.000000e-07 5.000000e-07)	0	1.410937e+03	(1.005000e-04 3.150000e-05 5.000000e-07)	1
0.0185        	T             	7.730000e+02	(0.000000e+00 5.000000e-07 5.000000e-07)	0	1.413229e+03	(1.005000e-04 3.150000e-05 5.000000e-07)	1
0.0186        	T             	7.730000e+02	(0.000000e+00 5.000000e-07 5.000000e-07)	0	1.415511e+03	(1.005000e-04 3.150000e-05 5.000000e-07)	1
0.0187        	T             	7.730000e+02	(0.000000e+00 5.000000e-07 5.000000e-07)	0	1.417783e+03	(1.005000e-04 3.150000e-05 5.000000e-07)	1
0.0188        	T             	7.730000e+02	(0.000000e+00 5.000000e-07 5.000000e-07)	0	1.420045e+03	(1.005000e-04 3.150000e-05 5.000000e-07)	1
0.0189        	T             	7.730000e+02	(0.000000e+00 5.000000e-07 5.000000e-07)	0	1.422298e+03	(1.005000e-04 3.150000e-05 5.000000e-07)	1
0.019         	T             	7.730000e+02	(0.000000e+00 5.000000e-07 5.000000e-07)	0	1.424540e+03	(1.005000e-04 3.150000e-05 5.000000e-07)	1