# Field minima and maxima
# Time          	field           	min             	location(min)   	max             	location(max)   
0.05            	p               	0.00000000e+00	(4.90000000e+01 6.40000000e+01 0.00000000e+00)	1.73223917e+03	(5.28725700e+01 -4.17489767e+00 0.00000000e+00)
0.05            	U               	(-1.01749270e+00 -8.27344630e-01 -9.35367494e-16)	(5.19008565e+01 7.36117746e+00 0.00000000e+00)	(7.98797476e-01 1.02525850e+00 6.86824226e-16)	(5.71292393e+01 1.26052017e+01 0.00000000e+00)
0.1             	p               	0.00000000e+00	(4.90000000e+01 6.40000000e+01 0.00000000e+00)	1.35234662e+02	(5.77350269e-01 9.00000000e+00 0.00000000e+00)
0.1             	U               	(-9.73285116e-01 -7.31129059e-01 -5.82179223e-17)	(5.19008565e+01 7.36117746e+00 0.00000000e+00)	(1.17704685e-01 4.05397323e-02 5.10772889e-16)	(2.57735027e+00 1.00000000e+00 0.00000000e+00)
0.15            	p               	0.00000000e+00	(4.90000000e+01 6.40000000e+01 0.00000000e+00)	1.35649128e+02	(5.77350269e-01 9.00000000e+00 0.00000000e+00)
0.15            	U               	(-8.85274645e-01 -6.34605176e-01 -5.95735304e-17)	(5.19008565e+01 7.36117746e+00 0.00000000e+00)	(1.74601883e-01 5.90696750e-02 5.10707444e-16)	(2.57735027e+00 1.00000000e+00 0.00000000e+00)
0.2             	p               	0.00000000e+00	(4.90000000e+01 6.40000000e+01 0.00000000e+00)	1.35566772e+02	(5.77350269e-01 9.00000000e+00 0.00000000e+00)
0.2             	U               	(-7.78910106e-01 -5.39114014e-01 -6.12369307e-17)	(5.19008565e+01 7.36117746e+00 0.00000000e+00)	(2.29747481e-01 7.60963979e-02 5.08806632e-16)	(2.57735027e+00 1.00000000e+00 0.00000000e+00)
0.25            	p               	0.00000000e+00	(4.90000000e+01 6.40000000e+01 0.00000000e+00)	1.35003144e+02	(5.77350269e-01 9.00000000e+00 0.00000000e+00)
0.25            	U               	(-6.49061186e-01 -4.50208631e-01 -6.27002826e-17)	(5.19008565e+01 7.36117746e+00 0.00000000e+00)	(2.83395995e-01 9.15692417e-02 5.05207995e-16)	(2.57735027e+00 1.00000000e+00 0.00000000e+00)
0.3             	p               	0.00000000e+00	(4.90000000e+01 6.40000000e+01 0.00000000e+00)	1.34098487e+02	(5.77350269e-01 9.00000000e+00 0.00000000e+00)
0.3             	U               	(-4.85201501e-01 -3.68304695e-01 -6.39932896e-17)	(5.19008565e+01 7.36117746e+00 0.00000000e+00)	(3.35609271e-01 1.05360053e-01 5.00392145e-16)	(2.57735027e+00 1.00000000e+00 0.00000000e+00)
0.35            	p               	0.00000000e+00	(4.90000000e+01 6.40000000e+01 0.00000000e+00)	1.32791873e+02	(5.77350269e-01 9.00000000e+00 0.00000000e+00)
0.35            	U               	(-2.83658352e-01 -3.04539935e-01 -6.48701463e-17)	(5.19008565e+01 7.36117746e+00 0.00000000e+00)	(3.86417789e-01 1.17341961e-01 4.94141591e-16)	(2.57735027e+00 1.00000000e+00 0.00000000e+00)
0.4             	p               	0.00000000e+00	(4.90000000e+01 6.40000000e+01 0.00000000e+00)	1.31027944e+02	(5.77350269e-01 9.00000000e+00 0.00000000e+00)
0.4             	U               	(-3.28814008e-01 -2.93293026e-01 -9.07663839e-17)	(5.07617916e+01 7.94481730e+00 0.00000000e+00)	(4.35818231e-01 1.27397269e-01 4.86247860e-16)	(2.57735027e+00 1.00000000e+00 0.00000000e+00)
0.45            	p               	0.00000000e+00	(4.90000000e+01 6.40000000e+01 0.00000000e+00)	1.28958530e+02	(5.77350269e-01 9.00000000e+00 0.00000000e+00)
0.45            	U               	(-2.80730797e-01 -3.18999529e-01 -8.93630241e-17)	(5.07617916e+01 7.94481730e+00 0.00000000e+00)	(4.83775715e-01 1.35425233e-01 4.77309593e-16)	(2.57735027e+00 1.00000000e+00 0.00000000e+00)
0.5             	p               	0.00000000e+00	(4.90000000e+01 6.40000000e+01 0.00000000e+00)	1.26623456e+02	(5.77350269e-01 9.00000000e+00 0.00000000e+00)
0.5             	U               	(-2.30530431e-01 -3.40345806e-01 -8.77530258e-17)	(5.07617916e+01 7.94481730e+00 0.00000000e+00)	(5.30229151e-01 1.41348697e-01 4.67487140e-16)	(2.57735027e+00 1.00000000e+00 0.00000000e+00)
0.55            	p               	0.00000000e+00	(4.90000000e+01 6.40000000e+01 0.00000000e+00)	1.23881394e+02	(5.77350269e-01 9.00000000e+00 0.00000000e+00)
0.55            	U               	(-1.82217008e-01 -3.53815921e-01 -8.60471760e-17)	(5.07617916e+01 7.94481730e+00 0.00000000e+00)	(5.75092990e-01 1.45117871e-01 4.56242659e-16)	(2.57735027e+00 1.00000000e+00 0.00000000e+00)
0.6             	p               	0.00000000e+00	(4.90000000e+01 6.40000000e+01 0.00000000e+00)	1.20754518e+02	(5.77350269e-01 9.00000000e+00 0.00000000e+00)
0.6             	U               	(-1.33344805e-01 -3.58756798e-01 -8.40197474e-17)	(5.07617916e+01 7.94481730e+00 0.00000000e+00)	(6.18262418e-01 1.46712547e-01 4.43671845e-16)	(2.57735027e+00 1.00000000e+00 0.00000000e+00)
0.65            	p               	0.00000000e+00	(4.90000000e+01 6.40000000e+01 0.00000000e+00)	1.17286169e+02	(5.77350269e-01 9.00000000e+00 0.00000000e+00)
0.65            	U               	(-8.41530601e-02 -3.55404279e-01 -8.18815753e-17)	(5.07617916e+01 7.94481730e+00 0.00000000e+00)	(6.59615590e-01 1.46143578e-01 4.29947954e-16)	(2.57735027e+00 1.00000000e+00 0.00000000e+00)
0.7             	p               	0.00000000e+00	(4.90000000e+01 6.40000000e+01 0.00000000e+00)	1.13505267e+02	(5.77350269e-01 9.00000000e+00 0.00000000e+00)
0.7             	U               	(-3.17198637e-02 -3.44409613e-01 -7.94636887e-17)	(5.07617916e+01 7.94481730e+00 0.00000000e+00)	(1.02290941e+00 2.14589304e-01 1.57658343e-16)	(3.42802150e+01 1.33777123e+01 0.00000000e+00)
0.75            	p               	0.00000000e+00	(4.90000000e+01 6.40000000e+01 0.00000000e+00)	1.09356924e+02	(5.77350269e-01 9.00000000e+00 0.00000000e+00)
0.75            	U               	(1.51958964e-02 -3.28102916e-01 -7.67099629e-17)	(5.07617916e+01 7.94481730e+00 0.00000000e+00)	(1.07886027e+00 2.29662638e-01 1.51468153e-16)	(3.42802150e+01 1.33777123e+01 0.00000000e+00)
0.8             	p               	0.00000000e+00	(4.90000000e+01 6.40000000e+01 0.00000000e+00)	1.04896992e+02	(5.77350269e-01 9.00000000e+00 0.00000000e+00)
0.8             	U               	(6.27698849e-02 -3.05724808e-01 -7.35649501e-17)	(5.07617916e+01 7.94481730e+00 0.00000000e+00)	(1.13218512e+00 2.44592759e-01 1.44898291e-16)	(3.42802150e+01 1.33777123e+01 0.00000000e+00)
0.85            	p               	0.00000000e+00	(4.90000000e+01 6.40000000e+01 0.00000000e+00)	1.00131638e+02	(5.77350269e-01 9.00000000e+00 0.00000000e+00)
0.85            	U               	(1.12371111e-01 -2.77760468e-01 -7.02210797e-17)	(5.07617916e+01 7.94481730e+00 0.00000000e+00)	(1.18277021e+00 2.59264878e-01 1.37956823e-16)	(3.42802150e+01 1.33777123e+01 0.00000000e+00)
0.9             	p               	0.00000000e+00	(4.90000000e+01 6.40000000e+01 0.00000000e+00)	9.50414519e+01	(5.77350269e-01 9.00000000e+00 0.00000000e+00)
0.9             	U               	(1.58662636e-01 -2.47860271e-01 -6.66642921e-17)	(5.07617916e+01 7.94481730e+00 0.00000000e+00)	(1.23046606e+00 2.73544843e-01 1.30604672e-16)	(3.42802150e+01 1.33777123e+01 0.00000000e+00)
0.95            	p               	0.00000000e+00	(4.90000000e+01 6.40000000e+01 0.00000000e+00)	8.96772923e+01	(5.77350269e-01 9.00000000e+00 0.00000000e+00)
0.95            	U               	(2.05425373e-01 -2.15022477e-01 -6.29395185e-17)	(5.07617916e+01 7.94481730e+00 0.00000000e+00)	(1.27518558e+00 2.87326135e-01 1.22931295e-16)	(3.42802150e+01 1.33777123e+01 0.00000000e+00)
1               	p               	0.00000000e+00	(4.90000000e+01 6.40000000e+01 0.00000000e+00)	8.40449692e+01	(5.77350269e-01 9.00000000e+00 0.00000000e+00)
1               	U               	(2.40261155e-01 -2.02933051e-01 0.00000000e+00)	(6.66666667e-01 1.53333333e+01 0.00000000e+00)	(1.31684188e+00 3.00501584e-01 1.14937531e-16)	(3.42802150e+01 1.33777123e+01 0.00000000e+00)
1.05            	p               	0.00000000e+00	(4.90000000e+01 6.40000000e+01 0.00000000e+00)	7.81602139e+01	(5.77350269e-01 7.00000000e+00 0.00000000e+00)
1.05            	U               	(2.50318855e-01 -2.08397879e-01 0.00000000e+00)	(6.66666667e-01 1.53333333e+01 0.00000000e+00)	(1.35532059e+00 3.12952348e-01 1.06649872e-16)	(3.42802150e+01 1.33777123e+01 0.00000000e+00)
1.1             	p               	0.00000000e+00	(4.90000000e+01 6.40000000e+01 0.00000000e+00)	7.20466790e+01	(5.77350269e-01 7.00000000e+00 0.00000000e+00)
1.1             	U               	(2.59863993e-01 -2.13122810e-01 0.00000000e+00)	(6.66666667e-01 1.53333333e+01 0.00000000e+00)	(1.39058701e+00 3.24658724e-01 9.80978980e-17)	(3.42802150e+01 1.33777123e+01 0.00000000e+00)
1.15            	p               	0.00000000e+00	(4.90000000e+01 6.40000000e+01 0.00000000e+00)	6.56892792e+01	(5.77350269e-01 7.00000000e+00 0.00000000e+00)
1.15            	U               	(2.68854165e-01 -2.17086074e-01 0.00000000e+00)	(6.66666667e-01 1.53333333e+01 0.00000000e+00)	(1.42257734e+00 3.35581023e-01 8.92483715e-17)	(3.42802150e+01 1.33777123e+01 0.00000000e+00)
1.2             	p               	0.00000000e+00	(4.90000000e+01 6.40000000e+01 0.00000000e+00)	5.91283883e+01	(5.77350269e-01 9.00000000e+00 0.00000000e+00)
1.2             	U               	(2.77249708e-01 -2.20271145e-01 0.00000000e+00)	(6.66666667e-01 1.53333333e+01 0.00000000e+00)	(1.45120074e+00 3.45633645e-01 8.01640498e-17)	(3.42802150e+01 1.33777123e+01 0.00000000e+00)
1.25            	p               	0.00000000e+00	(4.90000000e+01 6.40000000e+01 0.00000000e+00)	5.23800101e+01	(5.77350269e-01 9.00000000e+00 0.00000000e+00)
1.25            	U               	(2.85014344e-01 -2.22667072e-01 0.00000000e+00)	(6.66666667e-01 1.53333333e+01 0.00000000e+00)	(1.47636574e+00 3.54733098e-01 7.08681974e-17)	(3.42802150e+01 1.33777123e+01 0.00000000e+00)
1.3             	p               	0.00000000e+00	(4.90000000e+01 6.40000000e+01 0.00000000e+00)	4.54676130e+01	(5.77350269e-01 7.00000000e+00 0.00000000e+00)
1.3             	U               	(2.92115035e-01 -2.24268068e-01 0.00000000e+00)	(6.66666667e-01 1.53333333e+01 0.00000000e+00)	(1.49785288e+00 3.62768924e-01 6.13860941e-17)	(3.42802150e+01 1.33777123e+01 0.00000000e+00)
1.35            	p               	0.00000000e+00	(4.90000000e+01 6.40000000e+01 0.00000000e+00)	3.84103974e+01	(5.77350269e-01 7.00000000e+00 0.00000000e+00)
1.35            	U               	(2.98522518e-01 -2.25073660e-01 0.00000000e+00)	(6.66666667e-01 1.53333333e+01 0.00000000e+00)	(1.51570990e+00 3.69951804e-01 5.17406894e-17)	(3.42802150e+01 1.33777123e+01 0.00000000e+00)
1.4             	p               	0.00000000e+00	(4.90000000e+01 6.40000000e+01 0.00000000e+00)	3.12343241e+01	(5.77350269e-01 7.00000000e+00 0.00000000e+00)
1.4             	U               	(3.04241034e-01 -2.25118139e-01 0.00000000e+00)	(6.66666667e-01 1.53333333e+01 0.00000000e+00)	(1.52987367e+00 3.76236873e-01 4.19660409e-17)	(3.42802150e+01 1.33777123e+01 0.00000000e+00)
1.45            	p               	-1.68949154e-03	(5.10000000e+01 6.34226497e+01 0.00000000e+00)	2.39610357e+01	(5.77350269e-01 7.00000000e+00 0.00000000e+00)
1.45            	U               	(3.09250585e-01 -2.24411773e-01 0.00000000e+00)	(6.66666667e-01 1.53333333e+01 0.00000000e+00)	(1.54028823e+00 3.81586227e-01 3.20887489e-17)	(3.42802150e+01 1.33777123e+01 0.00000000e+00)
1.5             	p               	-3.64175294e-02	(5.10000000e+01 6.34226497e+01 0.00000000e+00)	1.66067438e+01	(5.77350269e-01 7.00000000e+00 0.00000000e+00)
1.5             	U               	(3.13533378e-01 -2.22967504e-01 0.00000000e+00)	(6.66666667e-01 1.53333333e+01 0.00000000e+00)	(1.54691307e+00 3.85971850e-01 2.21210985e-17)	(3.42802150e+01 1.33777123e+01 0.00000000e+00)
1.55            	p               	-4.97316910e-01	(5.66148568e+01 1.19325506e+01 0.00000000e+00)	9.19765889e+00	(5.77350269e-01 7.00000000e+00 0.00000000e+00)
1.55            	U               	(3.17074862e-01 -2.20801625e-01 0.00000000e+00)	(6.66666667e-01 1.53333333e+01 0.00000000e+00)	(1.54971420e+00 3.89371210e-01 1.20970029e-17)	(3.42802150e+01 1.33777123e+01 0.00000000e+00)
1.6             	p               	-4.14328574e+00	(5.66148568e+01 1.19325506e+01 0.00000000e+00)	1.75282668e+00	(5.77350269e-01 7.00000000e+00 0.00000000e+00)
1.6             	U               	(3.19863974e-01 -2.17933703e-01 0.00000000e+00)	(6.66666667e-01 1.53333333e+01 0.00000000e+00)	(1.34609513e+00 2.14969540e+00 8.56450572e-19)	(4.61497648e+01 2.34605128e+01 0.00000000e+00)
1.65            	p               	-7.78123204e+00	(5.66148568e+01 1.19325506e+01 0.00000000e+00)	2.09917438e-01	(4.86666667e+01 6.33333333e+01 0.00000000e+00)
1.65            	U               	(3.21892846e-01 -2.14385980e-01 0.00000000e+00)	(6.66666667e-01 1.53333333e+01 0.00000000e+00)	(1.34439108e+00 2.14208469e+00 3.58099717e-18)	(4.61497648e+01 2.34605128e+01 0.00000000e+00)
1.7             	p               	-1.33332406e+01	(1.66666667e+00 1.47559831e+01 0.00000000e+00)	1.42681048e-01	(4.86666667e+01 6.33333333e+01 0.00000000e+00)
1.7             	U               	(3.23157412e-01 -2.10183613e-01 0.00000000e+00)	(6.66666667e-01 1.53333333e+01 0.00000000e+00)	(1.34013045e+00 2.13064764e+00 6.29487923e-18)	(4.61497648e+01 2.34605128e+01 0.00000000e+00)
1.75            	p               	-2.06200160e+01	(5.77350269e-01 5.00000000e+00 0.00000000e+00)	7.51434703e-02	(4.86666667e+01 6.33333333e+01 0.00000000e+00)
1.75            	U               	(3.23721553e-01 -2.05341651e-01 0.00000000e+00)	(6.66666667e-01 1.53333333e+01 0.00000000e+00)	(1.33330817e+00 2.11538990e+00 8.99426016e-18)	(4.61497648e+01 2.34605128e+01 0.00000000e+00)
1.8             	p               	-2.79099869e+01	(5.77350269e-01 5.00000000e+00 0.00000000e+00)	7.61147171e-03	(4.86666667e+01 6.33333333e+01 0.00000000e+00)
1.8             	U               	(3.23671409e-01 -1.99874234e-01 0.00000000e+00)	(6.66666667e-01 1.53333333e+01 0.00000000e+00)	(1.32392983e+00 2.09632787e+00 1.16711859e-17)	(4.61497648e+01 2.34605128e+01 0.00000000e+00)
1.85            	p               	-3.51572584e+01	(5.77350269e-01 9.00000000e+00 0.00000000e+00)	0.00000000e+00	(4.90000000e+01 6.40000000e+01 0.00000000e+00)
1.85            	U               	(3.23007244e-01 -1.93817308e-01 0.00000000e+00)	(6.66666667e-01 1.53333333e+01 0.00000000e+00)	(1.31202975e+00 2.07352316e+00 1.43176850e-17)	(4.61497648e+01 2.34605128e+01 0.00000000e+00)
1.9             	p               	-4.23161425e+01	(5.77350269e-01 9.00000000e+00 0.00000000e+00)	0.00000000e+00	(4.90000000e+01 6.40000000e+01 0.00000000e+00)
1.9             	U               	(3.21731526e-01 -1.87209584e-01 0.00000000e+00)	(6.66666667e-01 1.53333333e+01 0.00000000e+00)	(1.29762358e+00 2.04700377e+00 1.69342047e-17)	(4.61497648e+01 2.34605128e+01 0.00000000e+00)
1.95            	p               	-4.93447648e+01	(5.77350269e-01 9.00000000e+00 0.00000000e+00)	0.00000000e+00	(4.90000000e+01 6.40000000e+01 0.00000000e+00)
1.95            	U               	(3.19846119e-01 -1.80089455e-01 0.00000000e+00)	(6.66666667e-01 1.53333333e+01 0.00000000e+00)	(1.28073810e+00 2.01681358e+00 1.95096518e-17)	(4.61497648e+01 2.34605128e+01 0.00000000e+00)
2               	p               	-5.62179037e+01	(5.77350269e-01 9.00000000e+00 0.00000000e+00)	0.00000000e+00	(4.90000000e+01 6.40000000e+01 0.00000000e+00)
2               	U               	(3.17355924e-01 -1.72497471e-01 0.00000000e+00)	(6.66666667e-01 1.53333333e+01 0.00000000e+00)	(1.26143322e+00 1.98304996e+00 2.20338345e-17)	(4.61497648e+01 2.34605128e+01 0.00000000e+00)
2.05            	p               	-6.29226015e+01	(5.77350269e-01 9.00000000e+00 0.00000000e+00)	0.00000000e+00	(4.90000000e+01 6.40000000e+01 0.00000000e+00)
2.05            	U               	(3.14268004e-01 -1.64475486e-01 0.00000000e+00)	(6.66666667e-01 1.53333333e+01 0.00000000e+00)	(1.23975701e+00 1.94574336e+00 2.45006588e-17)	(4.61497648e+01 2.34605128e+01 0.00000000e+00)
2.1             	p               	-6.94309516e+01	(5.77350269e-01 9.00000000e+00 0.00000000e+00)	0.00000000e+00	(4.90000000e+01 6.40000000e+01 0.00000000e+00)
2.1             	U               	(3.10591761e-01 -1.56066636e-01 0.00000000e+00)	(6.66666667e-01 1.53333333e+01 0.00000000e+00)	(1.21579685e+00 1.90499338e+00 2.69035490e-17)	(4.61497648e+01 2.34605128e+01 0.00000000e+00)
2.15            	p               	-7.57533122e+01	(5.77350269e-01 9.00000000e+00 0.00000000e+00)	0.00000000e+00	(4.90000000e+01 6.40000000e+01 0.00000000e+00)
2.15            	U               	(3.06340255e-01 -1.47316539e-01 0.00000000e+00)	(6.66666667e-01 1.53333333e+01 0.00000000e+00)	(1.18957462e+00 1.86083800e+00 2.92489034e-17)	(4.61497648e+01 2.34605128e+01 0.00000000e+00)
2.2             	p               	-8.18483458e+01	(5.77350269e-01 9.00000000e+00 0.00000000e+00)	0.00000000e+00	(4.90000000e+01 6.40000000e+01 0.00000000e+00)
2.2             	U               	(3.01529723e-01 -1.38272989e-01 0.00000000e+00)	(6.66666667e-01 1.53333333e+01 0.00000000e+00)	(1.16116707e+00 1.81340831e+00 3.15202502e-17)	(4.61497648e+01 2.34605128e+01 0.00000000e+00)
2.25            	p               	-8.77055822e+01	(5.77350269e-01 9.00000000e+00 0.00000000e+00)	0.00000000e+00	(4.90000000e+01 6.40000000e+01 0.00000000e+00)
2.25            	U               	(2.96178822e-01 -1.28985253e-01 0.00000000e+00)	(6.66666667e-01 1.53333333e+01 0.00000000e+00)	(1.13064592e+00 1.76282178e+00 3.37153451e-17)	(4.61497648e+01 2.34605128e+01 0.00000000e+00)
2.3             	p               	-9.33017879e+01	(5.77350269e-01 9.00000000e+00 0.00000000e+00)	0.00000000e+00	(4.90000000e+01 6.40000000e+01 0.00000000e+00)
2.3             	U               	(2.90301795e-01 -1.19497052e-01 0.00000000e+00)	(6.66666667e-01 1.53333333e+01 0.00000000e+00)	(1.09806896e+00 1.70917583e+00 3.58296753e-17)	(4.61497648e+01 2.34605128e+01 0.00000000e+00)
2.35            	p               	-9.86089981e+01	(5.77350269e-01 9.00000000e+00 0.00000000e+00)	0.00000000e+00	(4.90000000e+01 6.40000000e+01 0.00000000e+00)
2.35            	U               	(2.83928974e-01 -1.09867068e-01 0.00000000e+00)	(6.66666667e-01 1.53333333e+01 0.00000000e+00)	(1.06352862e+00 1.65262019e+00 3.78512130e-17)	(4.61497648e+01 2.34605128e+01 0.00000000e+00)
2.4             	p               	-1.03603315e+02	(5.77350269e-01 9.00000000e+00 0.00000000e+00)	0.00000000e+00	(4.90000000e+01 6.40000000e+01 0.00000000e+00)
2.4             	U               	(2.76966381e-01 -1.00149298e-01 0.00000000e+00)	(6.66666667e-01 1.53333333e+01 0.00000000e+00)	(1.02716344e+00 1.59338018e+00 3.97718309e-17)	(4.61497648e+01 2.34605128e+01 0.00000000e+00)
2.45            	p               	-1.08314316e+02	(5.77350269e-01 9.00000000e+00 0.00000000e+00)	0.00000000e+00	(4.90000000e+01 6.40000000e+01 0.00000000e+00)
2.45            	U               	(2.69416423e-01 -9.03311038e-02 0.00000000e+00)	(6.66666667e-01 1.53333333e+01 0.00000000e+00)	(9.89049164e-01 1.53157768e+00 4.15964221e-17)	(4.61497648e+01 2.34605128e+01 0.00000000e+00)
2.5             	p               	-1.12716546e+02	(5.77350269e-01 9.00000000e+00 0.00000000e+00)	0.00000000e+00	(4.90000000e+01 6.40000000e+01 0.00000000e+00)
2.5             	U               	(2.61252733e-01 -8.03654275e-02 0.00000000e+00)	(6.66666667e-01 1.53333333e+01 0.00000000e+00)	(9.49291863e-01 1.46738026e+00 4.33209392e-17)	(4.61497648e+01 2.34605128e+01 0.00000000e+00)
2.55            	p               	-1.16803783e+02	(5.77350269e-01 9.00000000e+00 0.00000000e+00)	0.00000000e+00	(4.90000000e+01 6.40000000e+01 0.00000000e+00)
2.55            	U               	(2.52596651e-01 -7.03480520e-02 0.00000000e+00)	(6.66666667e-01 1.53333333e+01 0.00000000e+00)	(9.07914335e-01 1.40081840e+00 4.49502500e-17)	(4.61497648e+01 2.34605128e+01 0.00000000e+00)
2.6             	p               	-1.20569324e+02	(5.77350269e-01 9.00000000e+00 0.00000000e+00)	0.00000000e+00	(4.90000000e+01 6.40000000e+01 0.00000000e+00)
2.6             	U               	(2.43412165e-01 -6.02139092e-02 0.00000000e+00)	(6.66666667e-01 1.53333333e+01 0.00000000e+00)	(8.65010879e-01 1.33204075e+00 4.64732746e-17)	(4.61497648e+01 2.34605128e+01 0.00000000e+00)
2.65            	p               	-1.23989400e+02	(5.77350269e-01 9.00000000e+00 0.00000000e+00)	0.00000000e+00	(4.90000000e+01 6.40000000e+01 0.00000000e+00)
2.65            	U               	(2.33633918e-01 -4.98655071e-02 0.00000000e+00)	(6.66666667e-01 1.53333333e+01 0.00000000e+00)	(8.20695752e-01 1.26122613e+00 4.78834142e-17)	(4.61497648e+01 2.34605128e+01 0.00000000e+00)
2.7             	p               	-1.27047586e+02	(5.77350269e-01 9.00000000e+00 0.00000000e+00)	0.00000000e+00	(4.90000000e+01 6.40000000e+01 0.00000000e+00)
2.7             	U               	(2.07376398e-01 -3.30044955e-01 -4.72489091e-16)	(2.57735027e+00 1.00000000e+00 0.00000000e+00)	(7.87283189e-01 1.55840823e+00 1.22084180e-16)	(5.70259417e+01 1.48689905e+01 0.00000000e+00)
2.75            	p               	-1.29744893e+02	(5.77350269e-01 9.00000000e+00 0.00000000e+00)	0.00000000e+00	(4.90000000e+01 6.40000000e+01 0.00000000e+00)
2.75            	U               	(1.68529033e-01 -3.31379422e-01 -4.83045744e-16)	(2.57735027e+00 1.00000000e+00 0.00000000e+00)	(7.59896490e-01 1.52931292e+00 1.25263409e-16)	(5.70259417e+01 1.48689905e+01 0.00000000e+00)
2.8             	p               	-1.32097154e+02	(5.77350269e-01 9.00000000e+00 0.00000000e+00)	0.00000000e+00	(4.90000000e+01 6.40000000e+01 0.00000000e+00)
2.8             	U               	(1.33291615e-01 -3.31645635e-01 -4.92373106e-16)	(2.57735027e+00 1.00000000e+00 0.00000000e+00)	(7.32062737e-01 1.49907617e+00 1.28138552e-16)	(5.70259417e+01 1.48689905e+01 0.00000000e+00)
2.85            	p               	-1.33990657e+02	(5.77350269e-01 9.00000000e+00 0.00000000e+00)	0.00000000e+00	(4.90000000e+01 6.40000000e+01 0.00000000e+00)
2.85            	U               	(1.02144137e-01 -3.32378475e-01 -5.00956466e-16)	(2.57735027e+00 1.00000000e+00 0.00000000e+00)	(7.03824336e-01 1.46780514e+00 1.30708843e-16)	(5.70259417e+01 1.48689905e+01 0.00000000e+00)
2.9             	p               	-1.35542583e+02	(5.77350269e-01 9.00000000e+00 0.00000000e+00)	0.00000000e+00	(4.90000000e+01 6.40000000e+01 0.00000000e+00)
2.9             	U               	(7.84810674e-02 -3.32256497e-01 -5.07976922e-16)	(2.57735027e+00 1.00000000e+00 0.00000000e+00)	(6.75247030e-01 1.43567546e+00 1.32996797e-16)	(5.70259417e+01 1.48689905e+01 0.00000000e+00)
2.95            	p               	-1.36643163e+02	(5.77350269e-01 9.00000000e+00 0.00000000e+00)	0.00000000e+00	(4.90000000e+01 6.40000000e+01 0.00000000e+00)
2.95            	U               	(4.79040274e-02 -3.40003057e-01 -5.14782070e-16)	(2.57735027e+00 1.00000000e+00 0.00000000e+00)	(6.46538648e-01 1.40271393e+00 1.34901370e-16)	(5.70259417e+01 1.48689905e+01 0.00000000e+00)
3               	p               	-1.37549122e+02	(5.77350269e-01 9.00000000e+00 0.00000000e+00)	0.00000000e+00	(4.90000000e+01 6.40000000e+01 0.00000000e+00)
3               	U               	(5.48465837e-04 -3.53692159e-01 -5.15963065e-16)	(2.57735027e+00 1.00000000e+00 0.00000000e+00)	(6.17798070e-01 1.36888942e+00 1.36471516e-16)	(5.70259417e+01 1.48689905e+01 0.00000000e+00)
3.05            	p               	-1.37769088e+02	(5.77350269e-01 9.00000000e+00 0.00000000e+00)	0.00000000e+00	(4.90000000e+01 6.40000000e+01 0.00000000e+00)
3.05            	U               	(-4.85476051e-02 -3.68521023e-01 -5.15844108e-16)	(2.57735027e+00 1.00000000e+00 0.00000000e+00)	(5.89047291e-01 1.33435540e+00 1.37668320e-16)	(5.70259417e+01 1.48689905e+01 0.00000000e+00)
3.1             	p               	-1.38001147e+02	(5.77350269e-01 9.00000000e+00 0.00000000e+00)	0.00000000e+00	(4.90000000e+01 6.40000000e+01 0.00000000e+00)
3.1             	U               	(-9.55417567e-02 -3.82918651e-01 -5.17500712e-16)	(2.57735027e+00 1.00000000e+00 0.00000000e+00)	(5.60157035e-01 1.29894156e+00 1.38500470e-16)	(5.70259417e+01 1.48689905e+01 0.00000000e+00)
3.15            	p               	-1.38138670e+02	(5.77350269e-01 9.00000000e+00 0.00000000e+00)	0.00000000e+00	(4.90000000e+01 6.40000000e+01 0.00000000e+00)
3.15            	U               	(-1.40854750e-01 -3.96983426e-01 -5.17115775e-16)	(2.57735027e+00 1.00000000e+00 0.00000000e+00)	(5.31091935e-01 1.26300258e+00 1.39021060e-16)	(5.70259417e+01 1.48689905e+01 0.00000000e+00)
3.2             	p               	-1.37213312e+02	(5.77350269e-01 9.00000000e+00 0.00000000e+00)	0.00000000e+00	(4.90000000e+01 6.40000000e+01 0.00000000e+00)
3.2             	U               	(-1.85364942e-01 -4.10814804e-01 -5.13534477e-16)	(2.57735027e+00 1.00000000e+00 0.00000000e+00)	(5.02358728e-01 1.22699778e+00 1.39255459e-16)	(5.70259417e+01 1.48689905e+01 0.00000000e+00)
3.25            	p               	-1.36923022e+02	(5.77350269e-01 1.10000000e+01 0.00000000e+00)	0.00000000e+00	(4.90000000e+01 6.40000000e+01 0.00000000e+00)
3.25            	U               	(-2.33566945e-01 -4.25711903e-01 -5.12236842e-16)	(2.57735027e+00 1.00000000e+00 0.00000000e+00)	(4.73797651e-01 1.19049117e+00 1.39227135e-16)	(5.70259417e+01 1.48689905e+01 0.00000000e+00)
3.3             	p               	-1.36619826e+02	(5.77350269e-01 7.00000000e+00 0.00000000e+00)	0.00000000e+00	(4.90000000e+01 6.40000000e+01 0.00000000e+00)
3.3             	U               	(-2.82904829e-01 -4.40830085e-01 -5.09264988e-16)	(2.57735027e+00 1.00000000e+00 0.00000000e+00)	(4.45432227e-01 1.15360609e+00 1.38726478e-16)	(5.70259417e+01 1.48689905e+01 0.00000000e+00)
3.35            	p               	-1.36191000e+02	(5.77350269e-01 9.00000000e+00 0.00000000e+00)	0.00000000e+00	(4.90000000e+01 6.40000000e+01 0.00000000e+00)
3.35            	U               	(-3.31186310e-01 -4.55446837e-01 -5.04142791e-16)	(2.57735027e+00 1.00000000e+00 0.00000000e+00)	(4.16949802e-01 1.11489749e+00 1.37911822e-16)	(5.70259417e+01 1.48689905e+01 0.00000000e+00)
3.4             	p               	-1.35082467e+02	(5.77350269e-01 7.00000000e+00 0.00000000e+00)	0.00000000e+00	(4.90000000e+01 6.40000000e+01 0.00000000e+00)
3.4             	U               	(-3.79539010e-01 -4.69903283e-01 -4.97934556e-16)	(2.57735027e+00 1.00000000e+00 0.00000000e+00)	(3.88583875e-01 1.07584191e+00 1.36666823e-16)	(5.70259417e+01 1.48689905e+01 0.00000000e+00)
3.45            	p               	-1.32863713e+02	(5.77350269e-01 9.00000000e+00 0.00000000e+00)	0.00000000e+00	(4.90000000e+01 6.40000000e+01 0.00000000e+00)
3.45            	U               	(-4.25771640e-01 -4.83436532e-01 -4.88874766e-16)	(2.57735027e+00 1.00000000e+00 0.00000000e+00)	(3.61535093e-01 1.03721520e+00 1.34905874e-16)	(5.70259417e+01 1.48689905e+01 0.00000000e+00)
3.5             	p               	-1.30642173e+02	(5.77350269e-01 9.00000000e+00 0.00000000e+00)	0.00000000e+00	(4.90000000e+01 6.40000000e+01 0.00000000e+00)
3.5             	U               	(-4.70999645e-01 -4.96349938e-01 -4.79745431e-16)	(2.57735027e+00 1.00000000e+00 0.00000000e+00)	(1.67872988e-01 1.57448480e+00 2.58872309e-17)	(5.62552201e+01 1.32500711e+01 0.00000000e+00)
3.55            	p               	-1.28541404e+02	(5.77350269e-01 9.00000000e+00 0.00000000e+00)	0.00000000e+00	(4.90000000e+01 6.40000000e+01 0.00000000e+00)
3.55            	U               	(-5.14937923e-01 -5.08483926e-01 -4.70835980e-16)	(2.57735027e+00 1.00000000e+00 0.00000000e+00)	(1.03781720e-02 2.94842290e+00 7.33552029e-17)	(5.28541543e+01 -2.90217140e+00 0.00000000e+00)
3.6             	p               	-1.26433814e+02	(5.77350269e-01 9.00000000e+00 0.00000000e+00)	0.00000000e+00	(4.90000000e+01 6.40000000e+01 0.00000000e+00)
3.6             	U               	(-5.57530413e-01 -5.19745448e-01 -4.61848136e-16)	(2.57735027e+00 1.00000000e+00 0.00000000e+00)	(-1.10124145e-02 3.09230570e+00 1.38705062e-16)	(5.47829079e+01 2.84919450e+00 0.00000000e+00)
3.65            	p               	-1.23950885e+02	(5.77350269e-01 9.00000000e+00 0.00000000e+00)	0.00000000e+00	(4.90000000e+01 6.40000000e+01 0.00000000e+00)
3.65            	U               	(-5.98897205e-01 -5.29892057e-01 -4.51640896e-16)	(2.57735027e+00 1.00000000e+00 0.00000000e+00)	(-1.09860199e-02 3.09294504e+00 1.35943785e-16)	(5.47829079e+01 2.84919450e+00 0.00000000e+00)
3.7             	p               	-1.21087721e+02	(5.77350269e-01 7.00000000e+00 0.00000000e+00)	0.00000000e+00	(4.90000000e+01 6.40000000e+01 0.00000000e+00)
3.7             	U               	(-6.39243464e-01 -5.38715631e-01 -4.40069187e-16)	(2.57735027e+00 1.00000000e+00 0.00000000e+00)	(-1.09265417e-02 3.09356321e+00 1.32759183e-16)	(5.47829079e+01 2.84919450e+00 0.00000000e+00)
3.75            	p               	-1.18413157e+02	(5.77350269e-01 7.00000000e+00 0.00000000e+00)	0.00000000e+00	(4.90000000e+01 6.40000000e+01 0.00000000e+00)
3.75            	U               	(-6.78571212e-01 -5.46099030e-01 -4.29284057e-16)	(2.57735027e+00 1.00000000e+00 0.00000000e+00)	(-1.08393750e-02 3.09416543e+00 1.30341851e-16)	(5.47829079e+01 2.84919450e+00 0.00000000e+00)
3.8             	p               	-1.14266372e+02	(5.77350269e-01 7.00000000e+00 0.00000000e+00)	0.00000000e+00	(4.90000000e+01 6.40000000e+01 0.00000000e+00)
3.8             	U               	(-7.16822067e-01 -5.51914317e-01 -4.13107332e-16)	(2.57735027e+00 1.00000000e+00 0.00000000e+00)	(-1.07419223e-02 3.09475042e+00 1.25069276e-16)	(5.47829079e+01 2.84919450e+00 0.00000000e+00)
3.85            	p               	-1.10399731e+02	(5.77350269e-01 7.00000000e+00 0.00000000e+00)	0.00000000e+00	(4.90000000e+01 6.40000000e+01 0.00000000e+00)
3.85            	U               	(-7.54058353e-01 -5.56087549e-01 -3.98031101e-16)	(2.57735027e+00 1.00000000e+00 0.00000000e+00)	(-1.06321058e-02 3.09531652e+00 1.20763760e-16)	(5.47829079e+01 2.84919450e+00 0.00000000e+00)
3.9             	p               	-1.06486159e+02	(5.77350269e-01 7.00000000e+00 0.00000000e+00)	0.00000000e+00	(4.90000000e+01 6.40000000e+01 0.00000000e+00)
3.9             	U               	(-7.90060962e-01 -5.58469154e-01 -3.82722976e-16)	(2.57735027e+00 1.00000000e+00 0.00000000e+00)	(-1.05190558e-02 3.09586356e+00 1.16548649e-16)	(5.47829079e+01 2.84919450e+00 0.00000000e+00)