/*--------------------------------*- C++ -*----------------------------------*\
  =========                 |
  \\      /  F ield         | OpenFOAM: The Open Source CFD Toolbox
   \\    /   O peration     | Website:  https://openfoam.org
    \\  /    A nd           | Version:  7
     \\/     M anipulation  |
\*---------------------------------------------------------------------------*/
FoamFile
{
    version     2.0;
    format      ascii;
    class       volVectorField;
    location    "0";
    object      U;
}
// * * * * * * * * * * * * * * * * * * * * * * * * * * * * * * * * * * * * * //

dimensions      [0 1 -1 0 0 0 0];

internalField   uniform (0 0 0);

boundaryField
{
    inlet
    {
        type            fixedValue;
        value           nonuniform List<vector> 
900
(
(1.2716e-05 0 0)
(1.2716e-05 0 0)
(3.80844e-05 0 0)
(6.33679e-05 0 0)
(6.33679e-05 0 0)
(8.85665e-05 0 0)
(0.00011368 0 0)
(0.00011368 0 0)
(0.000138709 0 0)
(0.000163653 0 0)
(0.000163653 0 0)
(0.000188513 0 0)
(0.000213287 0 0)
(0.000213287 0 0)
(0.000237977 0 0)
(0.000262582 0 0)
(0.000262582 0 0)
(0.000287101 0 0)
(0.000311537 0 0)
(0.000311537 0 0)
(0.000335887 0 0)
(0.000360152 0 0)
(0.000360152 0 0)
(0.000384333 0 0)
(0.000408428 0 0)
(0.000408428 0 0)
(0.000432439 0 0)
(0.000456365 0 0)
(0.000456365 0 0)
(0.000480206 0 0)
(0.000503963 0 0)
(0.000503963 0 0)
(0.000527634 0 0)
(0.000551221 0 0)
(0.000551221 0 0)
(0.000574723 0 0)
(0.00059814 0 0)
(0.00059814 0 0)
(0.000621472 0 0)
(0.000644719 0 0)
(0.000667881 0 0)
(0.000667881 0 0)
(0.000690959 0 0)
(0.000690959 0 0)
(0.000713952 0 0)
(0.00073686 0 0)
(0.00073686 0 0)
(0.000759683 0 0)
(0.000782421 0 0)
(0.000782421 0 0)
(0.000805074 0 0)
(0.000827643 0 0)
(0.000827643 0 0)
(0.000850126 0 0)
(0.000872525 0 0)
(0.000872525 0 0)
(0.000894839 0 0)
(0.000917068 0 0)
(0.000917068 0 0)
(0.000939212 0 0)
(0.000961272 0 0)
(0.000961272 0 0)
(0.000983247 0 0)
(0.00100514 0 0)
(0.00100514 0 0)
(0.00102694 0 0)
(0.00104866 0 0)
(0.00104866 0 0)
(0.0010703 0 0)
(0.00109185 0 0)
(0.00109185 0 0)
(0.00111331 0 0)
(0.00113469 0 0)
(0.00113469 0 0)
(0.00115599 0 0)
(0.0011772 0 0)
(0.0011772 0 0)
(0.00119833 0 0)
(0.00121937 0 0)
(0.00121937 0 0)
(0.00124032 0 0)
(0.0012612 0 0)
(0.0012612 0 0)
(0.00128198 0 0)
(0.00130268 0 0)
(0.00130268 0 0)
(0.0013233 0 0)
(0.00134383 0 0)
(0.00134383 0 0)
(0.00136428 0 0)
(0.00138464 0 0)
(0.00138464 0 0)
(0.00140492 0 0)
(0.00142511 0 0)
(0.00142511 0 0)
(0.00144522 0 0)
(0.00146525 0 0)
(0.00148518 0 0)
(0.00148518 0 0)
(0.00150504 0 0)
(0.00150504 0 0)
(0.00152481 0 0)
(0.00154449 0 0)
(0.00156409 0 0)
(0.00156409 0 0)
(0.0015836 0 0)
(0.0015836 0 0)
(0.00160303 0 0)
(0.00162238 0 0)
(0.00162238 0 0)
(0.00164164 0 0)
(0.00166081 0 0)
(0.00166081 0 0)
(0.0016799 0 0)
(0.00169891 0 0)
(0.00169891 0 0)
(0.00171783 0 0)
(0.00173666 0 0)
(0.00173666 0 0)
(0.00175541 0 0)
(0.00177408 0 0)
(0.00177408 0 0)
(0.00179266 0 0)
(0.00181115 0 0)
(0.00181115 0 0)
(0.00182957 0 0)
(0.00184789 0 0)
(0.00184789 0 0)
(0.00186613 0 0)
(0.00188429 0 0)
(0.00188429 0 0)
(0.00190236 0 0)
(0.00192035 0 0)
(0.00192035 0 0)
(0.00193825 0 0)
(0.00195607 0 0)
(0.00195607 0 0)
(0.0019738 0 0)
(0.00199145 0 0)
(0.00199145 0 0)
(0.00200901 0 0)
(0.00202649 0 0)
(0.00202649 0 0)
(0.00204388 0 0)
(0.00206119 0 0)
(0.00206119 0 0)
(0.00207841 0 0)
(0.00209555 0 0)
(0.00209555 0 0)
(0.0021126 0 0)
(0.00212957 0 0)
(0.00212957 0 0)
(0.00214646 0 0)
(0.00216326 0 0)
(0.00216326 0 0)
(0.00217997 0 0)
(0.0021966 0 0)
(0.0021966 0 0)
(0.00221315 0 0)
(0.0022296 0 0)
(0.0022296 0 0)
(0.00224598 0 0)
(0.00226227 0 0)
(0.00226227 0 0)
(0.00227848 0 0)
(0.0022946 0 0)
(0.0022946 0 0)
(0.00231063 0 0)
(0.00232658 0 0)
(0.00232658 0 0)
(0.00234245 0 0)
(0.00235823 0 0)
(0.00235823 0 0)
(0.00237392 0 0)
(0.00238954 0 0)
(0.00238954 0 0)
(0.00240506 0 0)
(0.0024205 0 0)
(0.0024205 0 0)
(0.00243586 0 0)
(0.00245113 0 0)
(0.00245113 0 0)
(0.00246632 0 0)
(0.00248142 0 0)
(0.00248142 0 0)
(0.00249644 0 0)
(0.00251137 0 0)
(0.00251137 0 0)
(0.00252622 0 0)
(0.00254098 0 0)
(0.00254098 0 0)
(0.00255566 0 0)
(0.00257025 0 0)
(0.00257025 0 0)
(0.00258476 0 0)
(0.00259919 0 0)
(0.00259919 0 0)
(0.00261352 0 0)
(0.00262778 0 0)
(0.00262778 0 0)
(0.00264195 0 0)
(0.00265603 0 0)
(0.00265603 0 0)
(0.00267003 0 0)
(0.00268394 0 0)
(0.00268394 0 0)
(0.00269777 0 0)
(0.00271152 0 0)
(0.00271152 0 0)
(0.00272518 0 0)
(0.00273875 0 0)
(0.00273875 0 0)
(0.00275224 0 0)
(0.00276565 0 0)
(0.00276565 0 0)
(0.00277897 0 0)
(0.00279221 0 0)
(0.00279221 0 0)
(0.00280536 0 0)
(0.00281842 0 0)
(0.00281842 0 0)
(0.0028314 0 0)
(0.0028443 0 0)
(0.0028443 0 0)
(0.00285711 0 0)
(0.00286984 0 0)
(0.00286984 0 0)
(0.00288248 0 0)
(0.00289504 0 0)
(0.00289504 0 0)
(0.00290751 0 0)
(0.0029199 0 0)
(0.0029199 0 0)
(0.0029322 0 0)
(0.00294442 0 0)
(0.00294442 0 0)
(0.00295655 0 0)
(0.0029686 0 0)
(0.0029686 0 0)
(0.00298056 0 0)
(0.00299244 0 0)
(0.00299244 0 0)
(0.00300423 0 0)
(0.00301594 0 0)
(0.00302756 0 0)
(0.00302756 0 0)
(0.0030391 0 0)
(0.0030391 0 0)
(0.00305056 0 0)
(0.00306192 0 0)
(0.00306192 0 0)
(0.00307321 0 0)
(0.00308441 0 0)
(0.00308441 0 0)
(0.00309552 0 0)
(0.00310655 0 0)
(0.00310655 0 0)
(0.0031175 0 0)
(0.00312836 0 0)
(0.00313913 0 0)
(0.00313913 0 0)
(0.00314982 0 0)
(0.00314982 0 0)
(0.00316043 0 0)
(0.00317095 0 0)
(0.00317095 0 0)
(0.00318138 0 0)
(0.00319174 0 0)
(0.00319174 0 0)
(0.003202 0 0)
(0.00321218 0 0)
(0.00321218 0 0)
(0.00322228 0 0)
(0.00323229 0 0)
(0.00323229 0 0)
(0.00324222 0 0)
(0.00325206 0 0)
(0.00325206 0 0)
(0.00326182 0 0)
(0.00327149 0 0)
(0.00327149 0 0)
(0.00328108 0 0)
(0.00329058 0 0)
(0.00329058 0 0)
(0.0033 0 0)
(0.00330933 0 0)
(0.00330933 0 0)
(0.00331858 0 0)
(0.00332774 0 0)
(0.00332774 0 0)
(0.00333682 0 0)
(0.00334581 0 0)
(0.00335472 0 0)
(0.00335472 0 0)
(0.00336354 0 0)
(0.00336354 0 0)
(0.00337228 0 0)
(0.00338094 0 0)
(0.00338094 0 0)
(0.00338951 0 0)
(0.00339799 0 0)
(0.00339799 0 0)
(0.00340639 0 0)
(0.00341471 0 0)
(0.00341471 0 0)
(0.00342294 0 0)
(0.00343108 0 0)
(0.00343108 0 0)
(0.00343914 0 0)
(0.00344712 0 0)
(0.00344712 0 0)
(0.00345501 0 0)
(0.00346281 0 0)
(0.00346281 0 0)
(0.00347053 0 0)
(0.00347817 0 0)
(0.00347817 0 0)
(0.00348572 0 0)
(0.00349319 0 0)
(0.00349319 0 0)
(0.00350057 0 0)
(0.00350786 0 0)
(0.00350786 0 0)
(0.00351508 0 0)
(0.0035222 0 0)
(0.0035222 0 0)
(0.00352925 0 0)
(0.0035362 0 0)
(0.0035362 0 0)
(0.00354307 0 0)
(0.00354986 0 0)
(0.00354986 0 0)
(0.00355657 0 0)
(0.00356318 0 0)
(0.00356318 0 0)
(0.00356972 0 0)
(0.00357616 0 0)
(0.00358253 0 0)
(0.00358253 0 0)
(0.00358881 0 0)
(0.00358881 0 0)
(0.003595 0 0)
(0.00360111 0 0)
(0.00360111 0 0)
(0.00360713 0 0)
(0.00361307 0 0)
(0.00361893 0 0)
(0.00361893 0 0)
(0.00362469 0 0)
(0.00362469 0 0)
(0.00363038 0 0)
(0.00363598 0 0)
(0.00363598 0 0)
(0.00364149 0 0)
(0.00364692 0 0)
(0.00365227 0 0)
(0.00365227 0 0)
(0.00365753 0 0)
(0.00365753 0 0)
(0.0036627 0 0)
(0.0036678 0 0)
(0.0036678 0 0)
(0.0036728 0 0)
(0.00367772 0 0)
(0.00368256 0 0)
(0.00368256 0 0)
(0.00368731 0 0)
(0.00368731 0 0)
(0.00369198 0 0)
(0.00369656 0 0)
(0.00369656 0 0)
(0.00370105 0 0)
(0.00370547 0 0)
(0.00370547 0 0)
(0.00370979 0 0)
(0.00371404 0 0)
(0.00371404 0 0)
(0.00371819 0 0)
(0.00372227 0 0)
(0.00372227 0 0)
(0.00372625 0 0)
(0.00373016 0 0)
(0.00373016 0 0)
(0.00373397 0 0)
(0.00373771 0 0)
(0.00373771 0 0)
(0.00374136 0 0)
(0.00374492 0 0)
(0.00374492 0 0)
(0.0037484 0 0)
(0.00375179 0 0)
(0.00375179 0 0)
(0.0037551 0 0)
(0.00375832 0 0)
(0.00375832 0 0)
(0.00376146 0 0)
(0.00376452 0 0)
(0.00376452 0 0)
(0.00376749 0 0)
(0.00377037 0 0)
(0.00377037 0 0)
(0.00377317 0 0)
(0.00377589 0 0)
(0.00377589 0 0)
(0.00377852 0 0)
(0.00378106 0 0)
(0.00378106 0 0)
(0.00378352 0 0)
(0.0037859 0 0)
(0.0037859 0 0)
(0.00378819 0 0)
(0.0037904 0 0)
(0.0037904 0 0)
(0.00379252 0 0)
(0.00379455 0 0)
(0.00379455 0 0)
(0.0037965 0 0)
(0.00379837 0 0)
(0.00379837 0 0)
(0.00380015 0 0)
(0.00380185 0 0)
(0.00380185 0 0)
(0.00380346 0 0)
(0.00380499 0 0)
(0.00380499 0 0)
(0.00380643 0 0)
(0.00380779 0 0)
(0.00380779 0 0)
(0.00380906 0 0)
(0.00381025 0 0)
(0.00381025 0 0)
(0.00381135 0 0)
(0.00381237 0 0)
(0.00381237 0 0)
(0.0038133 0 0)
(0.00381415 0 0)
(0.00381415 0 0)
(0.00381492 0 0)
(0.00381559 0 0)
(0.00381559 0 0)
(0.00381619 0 0)
(0.0038167 0 0)
(0.0038167 0 0)
(0.00381712 0 0)
(0.00381746 0 0)
(0.00381746 0 0)
(0.00381771 0 0)
(0.00381788 0 0)
(0.00381788 0 0)
(0.00381797 0 0)
(0.00381797 0 0)
(0.00381797 0 0)
(0.00381788 0 0)
(0.00381771 0 0)
(0.00381771 0 0)
(0.00381746 0 0)
(0.00381712 0 0)
(0.00381712 0 0)
(0.0038167 0 0)
(0.00381619 0 0)
(0.00381619 0 0)
(0.00381559 0 0)
(0.00381492 0 0)
(0.00381415 0 0)
(0.00381415 0 0)
(0.0038133 0 0)
(0.0038133 0 0)
(0.00381237 0 0)
(0.00381135 0 0)
(0.00381135 0 0)
(0.00381025 0 0)
(0.00380906 0 0)
(0.00380906 0 0)
(0.00380779 0 0)
(0.00380643 0 0)
(0.00380643 0 0)
(0.00380499 0 0)
(0.00380346 0 0)
(0.00380346 0 0)
(0.00380185 0 0)
(0.00380015 0 0)
(0.00380015 0 0)
(0.00379837 0 0)
(0.0037965 0 0)
(0.0037965 0 0)
(0.00379455 0 0)
(0.00379252 0 0)
(0.00379252 0 0)
(0.0037904 0 0)
(0.00378819 0 0)
(0.00378819 0 0)
(0.0037859 0 0)
(0.00378352 0 0)
(0.00378106 0 0)
(0.00378106 0 0)
(0.00377852 0 0)
(0.00377852 0 0)
(0.00377589 0 0)
(0.00377317 0 0)
(0.00377317 0 0)
(0.00377037 0 0)
(0.00376749 0 0)
(0.00376749 0 0)
(0.00376452 0 0)
(0.00376146 0 0)
(0.00376146 0 0)
(0.00375832 0 0)
(0.0037551 0 0)
(0.0037551 0 0)
(0.00375179 0 0)
(0.0037484 0 0)
(0.00374492 0 0)
(0.00374492 0 0)
(0.00374136 0 0)
(0.00374136 0 0)
(0.00373771 0 0)
(0.00373397 0 0)
(0.00373397 0 0)
(0.00373016 0 0)
(0.00372625 0 0)
(0.00372625 0 0)
(0.00372227 0 0)
(0.00371819 0 0)
(0.00371819 0 0)
(0.00371404 0 0)
(0.00370979 0 0)
(0.00370979 0 0)
(0.00370547 0 0)
(0.00370105 0 0)
(0.00370105 0 0)
(0.00369656 0 0)
(0.00369198 0 0)
(0.00369198 0 0)
(0.00368731 0 0)
(0.00368256 0 0)
(0.00368256 0 0)
(0.00367772 0 0)
(0.0036728 0 0)
(0.0036728 0 0)
(0.0036678 0 0)
(0.0036627 0 0)
(0.0036627 0 0)
(0.00365753 0 0)
(0.00365227 0 0)
(0.00365227 0 0)
(0.00364692 0 0)
(0.00364149 0 0)
(0.00364149 0 0)
(0.00363598 0 0)
(0.00363038 0 0)
(0.00363038 0 0)
(0.00362469 0 0)
(0.00361893 0 0)
(0.00361893 0 0)
(0.00361307 0 0)
(0.00360713 0 0)
(0.00360713 0 0)
(0.00360111 0 0)
(0.003595 0 0)
(0.003595 0 0)
(0.00358881 0 0)
(0.00358253 0 0)
(0.00357616 0 0)
(0.00357616 0 0)
(0.00356972 0 0)
(0.00356972 0 0)
(0.00356318 0 0)
(0.00355657 0 0)
(0.00355657 0 0)
(0.00354986 0 0)
(0.00354307 0 0)
(0.00354307 0 0)
(0.0035362 0 0)
(0.00352925 0 0)
(0.00352925 0 0)
(0.0035222 0 0)
(0.00351508 0 0)
(0.00351508 0 0)
(0.00350786 0 0)
(0.00350057 0 0)
(0.00350057 0 0)
(0.00349319 0 0)
(0.00348572 0 0)
(0.00348572 0 0)
(0.00347817 0 0)
(0.00347053 0 0)
(0.00347053 0 0)
(0.00346281 0 0)
(0.00345501 0 0)
(0.00345501 0 0)
(0.00344712 0 0)
(0.00343914 0 0)
(0.00343914 0 0)
(0.00343108 0 0)
(0.00342294 0 0)
(0.00342294 0 0)
(0.00341471 0 0)
(0.00340639 0 0)
(0.00340639 0 0)
(0.00339799 0 0)
(0.00338951 0 0)
(0.00338094 0 0)
(0.00338094 0 0)
(0.00337228 0 0)
(0.00336354 0 0)
(0.00336354 0 0)
(0.00335472 0 0)
(0.00335472 0 0)
(0.00334581 0 0)
(0.00333682 0 0)
(0.00333682 0 0)
(0.00332774 0 0)
(0.00331858 0 0)
(0.00331858 0 0)
(0.00330933 0 0)
(0.0033 0 0)
(0.0033 0 0)
(0.00329058 0 0)
(0.00328108 0 0)
(0.00328108 0 0)
(0.00327149 0 0)
(0.00326182 0 0)
(0.00326182 0 0)
(0.00325206 0 0)
(0.00324222 0 0)
(0.00324222 0 0)
(0.00323229 0 0)
(0.00322228 0 0)
(0.00322228 0 0)
(0.00321218 0 0)
(0.003202 0 0)
(0.003202 0 0)
(0.00319174 0 0)
(0.00318138 0 0)
(0.00318138 0 0)
(0.00317095 0 0)
(0.00316043 0 0)
(0.00314982 0 0)
(0.00314982 0 0)
(0.00313913 0 0)
(0.00313913 0 0)
(0.00312836 0 0)
(0.0031175 0 0)
(0.00310655 0 0)
(0.00310655 0 0)
(0.00309552 0 0)
(0.00309552 0 0)
(0.00308441 0 0)
(0.00307321 0 0)
(0.00307321 0 0)
(0.00306192 0 0)
(0.00305056 0 0)
(0.00305056 0 0)
(0.0030391 0 0)
(0.00302756 0 0)
(0.00301594 0 0)
(0.00301594 0 0)
(0.00300423 0 0)
(0.00299244 0 0)
(0.00299244 0 0)
(0.00298056 0 0)
(0.00298056 0 0)
(0.0029686 0 0)
(0.00295655 0 0)
(0.00295655 0 0)
(0.00294442 0 0)
(0.0029322 0 0)
(0.0029322 0 0)
(0.0029199 0 0)
(0.00290751 0 0)
(0.00290751 0 0)
(0.00289504 0 0)
(0.00288248 0 0)
(0.00288248 0 0)
(0.00286984 0 0)
(0.00285711 0 0)
(0.00285711 0 0)
(0.0028443 0 0)
(0.0028314 0 0)
(0.0028314 0 0)
(0.00281842 0 0)
(0.00280536 0 0)
(0.00280536 0 0)
(0.00279221 0 0)
(0.00277897 0 0)
(0.00277897 0 0)
(0.00276565 0 0)
(0.00275224 0 0)
(0.00275224 0 0)
(0.00273875 0 0)
(0.00272518 0 0)
(0.00271152 0 0)
(0.00271152 0 0)
(0.00269777 0 0)
(0.00268394 0 0)
(0.00268394 0 0)
(0.00267003 0 0)
(0.00267003 0 0)
(0.00265603 0 0)
(0.00264195 0 0)
(0.00264195 0 0)
(0.00262778 0 0)
(0.00261352 0 0)
(0.00261352 0 0)
(0.00259919 0 0)
(0.00258476 0 0)
(0.00257025 0 0)
(0.00257025 0 0)
(0.00255566 0 0)
(0.00255566 0 0)
(0.00254098 0 0)
(0.00252622 0 0)
(0.00252622 0 0)
(0.00251137 0 0)
(0.00249644 0 0)
(0.00249644 0 0)
(0.00248142 0 0)
(0.00246632 0 0)
(0.00246632 0 0)
(0.00245113 0 0)
(0.00243586 0 0)
(0.0024205 0 0)
(0.0024205 0 0)
(0.00240506 0 0)
(0.00238954 0 0)
(0.00238954 0 0)
(0.00237392 0 0)
(0.00237392 0 0)
(0.00235823 0 0)
(0.00234245 0 0)
(0.00234245 0 0)
(0.00232658 0 0)
(0.00231063 0 0)
(0.00231063 0 0)
(0.0022946 0 0)
(0.00227848 0 0)
(0.00226227 0 0)
(0.00226227 0 0)
(0.00224598 0 0)
(0.00224598 0 0)
(0.0022296 0 0)
(0.00221315 0 0)
(0.00221315 0 0)
(0.0021966 0 0)
(0.00217997 0 0)
(0.00217997 0 0)
(0.00216326 0 0)
(0.00214646 0 0)
(0.00214646 0 0)
(0.00212957 0 0)
(0.0021126 0 0)
(0.0021126 0 0)
(0.00209555 0 0)
(0.00207841 0 0)
(0.00207841 0 0)
(0.00206119 0 0)
(0.00204388 0 0)
(0.00204388 0 0)
(0.00202649 0 0)
(0.00200901 0 0)
(0.00199145 0 0)
(0.00199145 0 0)
(0.0019738 0 0)
(0.0019738 0 0)
(0.00195607 0 0)
(0.00193825 0 0)
(0.00193825 0 0)
(0.00192035 0 0)
(0.00190236 0 0)
(0.00190236 0 0)
(0.00188429 0 0)
(0.00186613 0 0)
(0.00186613 0 0)
(0.00184789 0 0)
(0.00182957 0 0)
(0.00182957 0 0)
(0.00181115 0 0)
(0.00179266 0 0)
(0.00179266 0 0)
(0.00177408 0 0)
(0.00175541 0 0)
(0.00175541 0 0)
(0.00173666 0 0)
(0.00171783 0 0)
(0.00171783 0 0)
(0.00169891 0 0)
(0.0016799 0 0)
(0.0016799 0 0)
(0.00166081 0 0)
(0.00164164 0 0)
(0.00164164 0 0)
(0.00162238 0 0)
(0.00160303 0 0)
(0.00160303 0 0)
(0.0015836 0 0)
(0.00156409 0 0)
(0.00156409 0 0)
(0.00154449 0 0)
(0.00152481 0 0)
(0.00152481 0 0)
(0.00150504 0 0)
(0.00148518 0 0)
(0.00148518 0 0)
(0.00146525 0 0)
(0.00144522 0 0)
(0.00144522 0 0)
(0.00142511 0 0)
(0.00140492 0 0)
(0.00140492 0 0)
(0.00138464 0 0)
(0.00136428 0 0)
(0.00136428 0 0)
(0.00134383 0 0)
(0.0013233 0 0)
(0.00130268 0 0)
(0.00130268 0 0)
(0.00128198 0 0)
(0.00128198 0 0)
(0.0012612 0 0)
(0.00124032 0 0)
(0.00124032 0 0)
(0.00121937 0 0)
(0.00119833 0 0)
(0.00119833 0 0)
(0.0011772 0 0)
(0.00115599 0 0)
(0.00115599 0 0)
(0.00113469 0 0)
(0.00111331 0 0)
(0.00111331 0 0)
(0.00109185 0 0)
(0.0010703 0 0)
(0.0010703 0 0)
(0.00104866 0 0)
(0.00102694 0 0)
(0.00100514 0 0)
(0.00100514 0 0)
(0.000983247 0 0)
(0.000983247 0 0)
(0.000961272 0 0)
(0.000939212 0 0)
(0.000917068 0 0)
(0.000917068 0 0)
(0.000894839 0 0)
(0.000894839 0 0)
(0.000872525 0 0)
(0.000850126 0 0)
(0.000850126 0 0)
(0.000827643 0 0)
(0.000805074 0 0)
(0.000805074 0 0)
(0.000782421 0 0)
(0.000759683 0 0)
(0.00073686 0 0)
(0.00073686 0 0)
(0.000713952 0 0)
(0.000713952 0 0)
(0.000690959 0 0)
(0.000667881 0 0)
(0.000667881 0 0)
(0.000644719 0 0)
(0.000621472 0 0)
(0.000621472 0 0)
(0.00059814 0 0)
(0.000574723 0 0)
(0.000574723 0 0)
(0.000551221 0 0)
(0.000527634 0 0)
(0.000503963 0 0)
(0.000503963 0 0)
(0.000480206 0 0)
(0.000480206 0 0)
(0.000456365 0 0)
(0.000432439 0 0)
(0.000432439 0 0)
(0.000408428 0 0)
(0.000384333 0 0)
(0.000384333 0 0)
(0.000360152 0 0)
(0.000335887 0 0)
(0.000335887 0 0)
(0.000311537 0 0)
(0.000287101 0 0)
(0.000262582 0 0)
(0.000262582 0 0)
(0.000237977 0 0)
(0.000237977 0 0)
(0.000213287 0 0)
(0.000188513 0 0)
(0.000188513 0 0)
(0.000163653 0 0)
(0.000138709 0 0)
(0.000138709 0 0)
(0.00011368 0 0)
(8.85665e-05 0 0)
(8.85665e-05 0 0)
(6.33679e-05 0 0)
(3.80844e-05 0 0)
(3.80844e-05 0 0)
(1.2716e-05 0 0)
)
;
    }
    outlet
    {
        type            zeroGradient;
    }
    top
    {
        type            noSlip;
    }
    bottom
    {
        type            noSlip;
    }
    frontAndBack
    {
        type            empty;
    }
}


// ************************************************************************* //
