/*--------------------------------*- C++ -*----------------------------------*\
  =========                 |
  \\      /  F ield         | OpenFOAM: The Open Source CFD Toolbox
   \\    /   O peration     | Website:  https://openfoam.org
    \\  /    A nd           | Version:  7
     \\/     M anipulation  |
\*---------------------------------------------------------------------------*/
FoamFile
{
    version     2.0;
    format      ascii;
    class       volScalarField;
    location    "8";
    object      gradTx;
}
// * * * * * * * * * * * * * * * * * * * * * * * * * * * * * * * * * * * * * //

dimensions      [0 -1 0 1 0 0 0];

internalField   nonuniform List<scalar> 5(786.323 790.54 798.753 808.684 815.699);

boundaryField
{
    left
    {
        type            calculated;
        value           uniform 785.308;
    }
    right
    {
        type            calculated;
        value           uniform 817.795;
    }
    empty
    {
        type            empty;
    }
}


// ************************************************************************* //
