/*--------------------------------*- C++ -*----------------------------------*\
  =========                 |
  \\      /  F ield         | OpenFOAM: The Open Source CFD Toolbox
   \\    /   O peration     | Website:  https://openfoam.org
    \\  /    A nd           | Version:  7
     \\/     M anipulation  |
\*---------------------------------------------------------------------------*/
FoamFile
{
    version     2.0;
    format      ascii;
    class       volScalarField;
    location    "5";
    object      gradTx;
}
// * * * * * * * * * * * * * * * * * * * * * * * * * * * * * * * * * * * * * //

dimensions      [0 -1 0 1 0 0 0];

internalField   nonuniform List<scalar> 5(774.85 770.833 783.354 818.353 852.61);

boundaryField
{
    left
    {
        type            calculated;
        value           uniform 778.393;
    }
    right
    {
        type            calculated;
        value           uniform 864.862;
    }
    empty
    {
        type            empty;
    }
}


// ************************************************************************* //
