/*--------------------------------*- C++ -*----------------------------------*\
  =========                 |
  \\      /  F ield         | OpenFOAM: The Open Source CFD Toolbox
   \\    /   O peration     | Website:  https://openfoam.org
    \\  /    A nd           | Version:  7
     \\/     M anipulation  |
\*---------------------------------------------------------------------------*/
FoamFile
{
    version     2.0;
    format      ascii;
    class       volVectorField;
    location    "0";
    object      U;
}
// * * * * * * * * * * * * * * * * * * * * * * * * * * * * * * * * * * * * * //

dimensions      [0 1 -1 0 0 0 0];

internalField   nonuniform List<vector> 
48000
(
(1.1395e-05 -3.36049e-08 0)
(1.14694e-05 -2.18504e-08 0)
(1.14511e-05 5.78167e-09 0)
(1.13558e-05 3.22624e-08 0)
(1.11921e-05 5.59858e-08 0)
(1.09625e-05 7.76052e-08 0)
(1.06686e-05 9.82501e-08 0)
(1.031e-05 1.19089e-07 0)
(9.88387e-06 1.41036e-07 0)
(9.38587e-06 1.64669e-07 0)
(8.81075e-06 1.90212e-07 0)
(8.15351e-06 2.17498e-07 0)
(7.4105e-06 2.45894e-07 0)
(6.58085e-06 2.74194e-07 0)
(5.66824e-06 3.00479e-07 0)
(4.68295e-06 3.21976e-07 0)
(3.64427e-06 3.3493e-07 0)
(2.58295e-06 3.34588e-07 0)
(1.54335e-06 3.15402e-07 0)
(5.84383e-07 2.71666e-07 0)
(-2.2203e-07 1.98907e-07 0)
(-7.97568e-07 9.64681e-08 0)
(-1.07233e-06 -2.82909e-08 0)
(-1.00957e-06 -1.54023e-07 0)
(-6.40201e-07 -2.37258e-07 0)
(-1.40859e-07 -2.04404e-07 0)
(4.78522e-17 -2.07151e-17 0)
(1.20052e-16 -7.21037e-20 0)
(1.17234e-16 -7.03214e-19 0)
(1.18781e-16 -8.43451e-19 0)
(1.20443e-16 -8.1874e-19 0)
(1.22021e-16 -7.59665e-19 0)
(1.2351e-16 -7.29432e-19 0)
(1.24996e-16 -7.55877e-19 0)
(1.26594e-16 -8.42753e-19 0)
(1.28414e-16 -9.77372e-19 0)
(1.30529e-16 -1.13764e-18 0)
(1.32966e-16 -1.29874e-18 0)
(1.35704e-16 -1.43979e-18 0)
(1.38695e-16 -1.55084e-18 0)
(1.41886e-16 -1.64024e-18 0)
(1.45266e-16 -1.73993e-18 0)
(1.48907e-16 -1.90094e-18 0)
(1.52965e-16 -2.15678e-18 0)
(1.57522e-16 -2.40001e-18 0)
(1.62e-16 -2.08518e-18 0)
(8.2065e-17 -3.96306e-20 0)
(2.62369e-10 -3.9558e-10 0)
(1.67389e-09 -6.33305e-10 0)
(2.56947e-09 -2.22862e-11 0)
(1.07163e-09 1.00058e-09 0)
(9.20097e-17 1.00457e-19 0)
(1.83455e-16 3.77729e-19 0)
(1.82765e-16 3.39569e-19 0)
(1.82385e-16 4.0998e-20 0)
(1.82704e-16 -3.60713e-19 0)
(1.83878e-16 -8.13132e-19 0)
(1.85998e-16 -1.30705e-18 0)
(1.89136e-16 -1.83038e-18 0)
(1.9332e-16 -2.35382e-18 0)
(1.98512e-16 -2.83807e-18 0)
(2.04603e-16 -3.25351e-18 0)
(2.11466e-16 -3.609e-18 0)
(2.19071e-16 -3.99618e-18 0)
(2.27749e-16 -4.68218e-18 0)
(2.38797e-16 -6.36535e-18 0)
(2.56165e-16 -1.10023e-17 0)
(2.9192e-16 -2.47526e-17 0)
(1.58336e-16 -6.92602e-17 0)
(-3.24875e-12 4.38369e-12 0)
(5.49834e-12 -3.27069e-12 0)
(-9.04776e-12 2.09966e-11 0)
(-5.75921e-11 1.23072e-11 0)
(-6.50563e-11 -9.17341e-12 0)
(-3.61612e-11 -1.37486e-11 0)
(-1.06833e-11 -7.77755e-12 0)
(-4.54294e-13 -2.19743e-12 0)
(1.0206e-12 6.36259e-14 0)
(3.88009e-13 2.65394e-13 0)
(5.18838e-14 1.32509e-13 0)
(4.14558e-15 2.11218e-15 0)
(7.48793e-15 8.03231e-16 0)
(6.39201e-15 2.92692e-16 0)
(6.09333e-15 5.98579e-18 0)
(6.36718e-15 -2.79837e-16 0)
(7.43379e-15 -7.86775e-16 0)
(4.11028e-15 -2.08487e-15 0)
(-1.26889e-13 2.51144e-14 0)
(-1.72423e-13 -5.08585e-13 0)
(3.49642e-12 -3.59339e-12 0)
(1.58853e-11 -5.98451e-12 0)
(1.1669e-11 1.23451e-11 0)
(-7.16285e-11 4.91876e-11 0)
(-1.68505e-10 2.18715e-11 0)
(-7.29013e-11 -6.8608e-11 0)
(2.82872e-16 -6.77903e-21 0)
(5.77236e-16 -1.1479e-17 0)
(6.05556e-16 -1.6843e-17 0)
(6.40843e-16 -1.84441e-17 0)
(6.77846e-16 -1.85593e-17 0)
(7.14602e-16 -1.81961e-17 0)
(7.50411e-16 -1.7613e-17 0)
(7.84772e-16 -1.67484e-17 0)
(8.16962e-16 -1.54412e-17 0)
(8.45956e-16 -1.35532e-17 0)
(8.70543e-16 -1.10339e-17 0)
(8.89512e-16 -7.93541e-18 0)
(9.01854e-16 -4.40586e-18 0)
(9.06967e-16 -7.07899e-19 0)
(9.04977e-16 2.69878e-18 0)
(8.9728e-16 4.99796e-18 0)
(8.87475e-16 4.80733e-18 0)
(8.82426e-16 2.41657e-19 0)
(8.89378e-16 -8.32873e-18 0)
(4.52863e-16 -2.39906e-18 0)
(4.44879e-08 -1.95434e-08 0)
(-1.63666e-07 1.60972e-07 0)
(-5.12284e-07 8.22362e-08 0)
(-5.43932e-07 -1.03859e-07 0)
(-4.73572e-17 -8.37524e-17 0)
(1.16174e-16 -3.92687e-17 0)
(1.67353e-16 -1.5351e-17 0)
(1.95699e-16 -1.29953e-17 0)
(2.23109e-16 -1.44148e-17 0)
(2.56003e-16 -1.84792e-17 0)
(2.9994e-16 -2.54579e-17 0)
(3.60973e-16 -3.5575e-17 0)
(4.45107e-16 -4.85591e-17 0)
(5.57438e-16 -6.37711e-17 0)
(7.01475e-16 -8.02659e-17 0)
(8.78406e-16 -9.66654e-17 0)
(1.08597e-15 -1.10896e-16 0)
(1.31681e-15 -1.19946e-16 0)
(1.55687e-15 -1.2011e-16 0)
(1.78513e-15 -1.08156e-16 0)
(1.97434e-15 -8.10471e-17 0)
(2.09052e-15 -3.51387e-17 0)
(2.09273e-15 3.29313e-17 0)
(1.924e-15 1.35801e-16 0)
(1.48535e-15 3.02846e-16 0)
(6.63151e-16 2.40291e-16 0)
(5.2561e-15 -5.06808e-15 0)
(2.90092e-05 -1.00244e-05 0)
(6.21055e-05 -1.1953e-05 0)
(9.28146e-05 -1.03777e-05 0)
(0.000118044 -8.22005e-06 0)
(0.000138546 -6.82543e-06 0)
(0.00015714 -6.70784e-06 0)
(0.000177263 -7.99046e-06 0)
(0.00020234 -1.06377e-05 0)
(0.00023552 -1.4552e-05 0)
(0.000279524 -1.9609e-05 0)
(0.00033657 -2.56892e-05 0)
(0.000408284 -3.26723e-05 0)
(0.000495454 -4.04457e-05 0)
(0.000598937 -4.96426e-05 0)
(0.00072325 -6.20709e-05 0)
(0.000874924 -7.54707e-05 0)
(0.00104821 -7.86265e-05 0)
(0.00118227 -3.99031e-05 0)
(0.00118275 3.85461e-05 0)
(0.0010596 6.90791e-05 0)
(0.000926173 5.25123e-05 0)
(0.000836444 3.62522e-05 0)
(0.000760283 3.62003e-05 0)
(0.000673172 3.94624e-05 0)
(0.000578755 3.99407e-05 0)
(0.000482415 4.00564e-05 0)
(0.000384189 4.01856e-05 0)
(0.000283783 4.07005e-05 0)
(0.000182025 4.04764e-05 0)
(8.55313e-05 3.29685e-05 0)
(1.38782e-14 1.49627e-14 0)
(-3.48019e-16 9.6201e-17 0)
(3.92356e-16 -1.65766e-16 0)
(5.35554e-16 2.25682e-17 0)
(4.71387e-16 4.15984e-17 0)
(3.92189e-16 3.75994e-17 0)
(3.21902e-16 3.26879e-17 0)
(2.63968e-16 2.52457e-17 0)
(2.2307e-16 1.5653e-17 0)
(2.02896e-16 4.52097e-18 0)
(2.06409e-16 -8.03436e-18 0)
(2.36819e-16 -2.23754e-17 0)
(2.98125e-16 -3.89306e-17 0)
(3.94586e-16 -5.7531e-17 0)
(5.28875e-16 -7.6758e-17 0)
(6.99439e-16 -9.38058e-17 0)
(8.98804e-16 -1.05559e-16 0)
(1.11626e-15 -1.11897e-16 0)
(1.3489e-15 -1.20745e-16 0)
(1.55085e-15 -8.11983e-17 0)
(1.27658e-15 3.55465e-16 0)
(-4.68961e-16 -1.28895e-16 0)
(3.02205e-14 -3.16173e-14 0)
(0.000180202 -6.53531e-05 0)
(0.000351993 -6.71566e-05 0)
(0.000497073 -5.02033e-05 0)
(0.00059764 -3.11706e-05 0)
(0.00065523 -1.54653e-05 0)
(0.000681739 -5.84498e-06 0)
(0.000691088 -1.28622e-06 0)
(0.00069261 5.74911e-07 0)
(0.000690232 1.73611e-06 0)
(0.000683689 3.75019e-06 0)
(0.000669316 7.74262e-06 0)
(0.000642244 1.33272e-05 0)
(0.00060183 1.77103e-05 0)
(0.000553092 1.95383e-05 0)
(0.000502061 1.93291e-05 0)
(0.000452705 1.79893e-05 0)
(0.000406909 1.62401e-05 0)
(0.000365179 1.45042e-05 0)
(0.00032734 1.29414e-05 0)
(0.000293056 1.15458e-05 0)
(0.000262062 1.02745e-05 0)
(0.000234165 9.1019e-06 0)
(0.000209184 8.02558e-06 0)
(0.000186895 7.06769e-06 0)
(0.000166963 6.27906e-06 0)
(0.000148875 5.73893e-06 0)
(0.00013188 5.54306e-06 0)
(0.000114982 5.77223e-06 0)
(9.70334e-05 6.43007e-06 0)
(7.7019e-05 7.33641e-06 0)
(5.46595e-05 7.98112e-06 0)
(3.13628e-05 7.43474e-06 0)
(1.08764e-05 4.51292e-06 0)
(-1.44006e-06 -1.06012e-06 0)
(3.38202e-16 -1.61482e-16 0)
(1.0848e-15 -1.35699e-16 0)
(1.26801e-15 -8.42407e-17 0)
(1.39944e-15 -4.7193e-17 0)
(1.46756e-15 -2.0926e-17 0)
(1.49053e-15 -2.04501e-18 0)
(1.4805e-15 1.20818e-17 0)
(1.44565e-15 2.27666e-17 0)
(1.39262e-15 3.02579e-17 0)
(1.32804e-15 3.43277e-17 0)
(1.25892e-15 3.47902e-17 0)
(1.19238e-15 3.17509e-17 0)
(1.135e-15 2.56282e-17 0)
(1.0923e-15 1.70696e-17 0)
(1.06838e-15 6.85282e-18 0)
(1.06571e-15 -4.18203e-18 0)
(1.08505e-15 -1.51587e-17 0)
(1.12537e-15 -2.51609e-17 0)
(1.18375e-15 -3.32237e-17 0)
(1.25532e-15 -3.83437e-17 0)
(1.33319e-15 -3.95251e-17 0)
(1.40858e-15 -3.58614e-17 0)
(1.47105e-15 -2.66105e-17 0)
(1.50884e-15 -1.11818e-17 0)
(1.50906e-15 1.09603e-17 0)
(1.45791e-15 4.01954e-17 0)
(1.34184e-15 7.58758e-17 0)
(1.14942e-15 1.16536e-16 0)
(8.64356e-16 1.76706e-16 0)
(3.00118e-16 -5.12886e-17 0)
(-3.20457e-07 -1.35525e-06 0)
(1.64649e-05 -6.36876e-06 0)
(3.8746e-05 -7.94662e-06 0)
(6.10731e-05 -7.52959e-06 0)
(8.1012e-05 -6.42685e-06 0)
(9.8092e-05 -5.38914e-06 0)
(0.000113048 -4.74478e-06 0)
(0.000127067 -4.57923e-06 0)
(0.000141368 -4.8651e-06 0)
(0.000157033 -5.53574e-06 0)
(0.000174958 -6.52154e-06 0)
(0.000195862 -7.76313e-06 0)
(0.000220303 -9.20989e-06 0)
(0.000248688 -1.08099e-05 0)
(0.000281249 -1.24967e-05 0)
(0.000317986 -1.41769e-05 0)
(0.0003586 -1.57286e-05 0)
(0.000402462 -1.70041e-05 0)
(0.000448532 -1.77567e-05 0)
(0.000494888 -1.74413e-05 0)
(0.00053788 -1.52624e-05 0)
(0.000572041 -1.08284e-05 0)
(0.000593422 -5.76822e-06 0)
(0.000604543 -3.10341e-06 0)
(0.000611289 -2.32608e-06 0)
(0.000615936 -1.53411e-06 0)
(0.000617537 -1.31998e-07 0)
(0.000613597 2.96526e-06 0)
(0.000597982 9.88756e-06 0)
(0.000558487 2.32054e-05 0)
(0.000478408 4.33287e-05 0)
(0.000348615 6.37228e-05 0)
(0.000183587 6.54955e-05 0)
(3.12044e-14 3.23333e-14 0)
(-1.74602e-16 3.60065e-17 0)
(1.73699e-15 -3.79284e-16 0)
(2.01412e-15 1.02158e-16 0)
(1.74522e-15 1.66749e-16 0)
(1.39159e-15 1.86875e-16 0)
(1.032e-15 1.72719e-16 0)
(7.15572e-16 1.43706e-16 0)
(4.62994e-16 1.08872e-16 0)
(2.77696e-16 7.64258e-17 0)
(1.51905e-16 4.93654e-17 0)
(7.47017e-17 2.7838e-17 0)
(3.60971e-17 1.07666e-17 0)
(2.87188e-17 -3.38835e-18 0)
(4.82209e-17 -1.61137e-17 0)
(9.27005e-17 -2.83659e-17 0)
(1.6098e-16 -3.99136e-17 0)
(2.49609e-16 -4.87157e-17 0)
(3.51768e-16 -5.34427e-17 0)
(4.54349e-16 -4.91385e-17 0)
(5.28982e-16 -2.54949e-17 0)
(4.02483e-16 1.51994e-16 0)
(-2.84525e-16 -7.62498e-17 0)
(1.26522e-14 -1.36297e-14 0)
(7.78975e-05 -3.00336e-05 0)
(0.000165978 -3.69434e-05 0)
(0.00025902 -3.72504e-05 0)
(0.000351137 -3.7019e-05 0)
(0.000442043 -3.75418e-05 0)
(0.000533186 -3.90023e-05 0)
(0.000627065 -4.19473e-05 0)
(0.000724125 -4.53176e-05 0)
(0.000829263 -5.35948e-05 0)
(0.000959316 -6.67396e-05 0)
(0.00109144 -5.08165e-05 0)
(0.00115206 -3.04797e-07 0)
(0.0010917 5.20635e-05 0)
(0.00095015 7.41609e-05 0)
(0.00079262 6.77501e-05 0)
(0.000657251 5.53207e-05 0)
(0.000545873 4.44281e-05 0)
(0.000452552 3.64719e-05 0)
(0.000373405 2.968e-05 0)
(0.000307847 2.3513e-05 0)
(0.00025525 1.81333e-05 0)
(0.000214131 1.3689e-05 0)
(0.000182418 1.03101e-05 0)
(0.000157559 8.11729e-06 0)
(0.000136622 7.18795e-06 0)
(0.000116502 7.50801e-06 0)
(9.4288e-05 8.84858e-06 0)
(6.79946e-05 1.04832e-05 0)
(3.74874e-05 1.08748e-05 0)
(6.44431e-06 8.19772e-06 0)
(1.10999e-15 8.64387e-16 0)
(1.41164e-15 -2.33777e-16 0)
(2.02448e-15 -2.14684e-16 0)
(2.34944e-15 -1.1027e-16 0)
(2.47208e-15 -1.23729e-17 0)
(2.42243e-15 6.20254e-17 0)
(2.25129e-15 1.09113e-16 0)
(2.00883e-15 1.33348e-16 0)
(1.73555e-15 1.39929e-16 0)
(1.46174e-15 1.33879e-16 0)
(1.20767e-15 1.20191e-16 0)
(9.84799e-16 1.02684e-16 0)
(7.98163e-16 8.39523e-17 0)
(6.4844e-16 6.57704e-17 0)
(5.33238e-16 4.94317e-17 0)
(4.47907e-16 3.5899e-17 0)
(3.86282e-16 2.57259e-17 0)
(3.41747e-16 1.88096e-17 0)
(3.08521e-16 1.44163e-17 0)
(2.83126e-16 1.09787e-17 0)
(2.70073e-16 5.91878e-18 0)
(1.19056e-16 1.76651e-17 0)
(-1.50714e-07 1.77939e-07 0)
(-5.5215e-07 1.01291e-07 0)
(-5.46691e-07 -1.01134e-07 0)
(-1.46517e-07 -1.73579e-07 0)
(3.55357e-16 -1.73288e-17 0)
(7.43401e-16 -7.37173e-18 0)
(7.59819e-16 -1.27839e-17 0)
(7.86273e-16 -1.36701e-17 0)
(8.11645e-16 -1.17021e-17 0)
(8.31424e-16 -8.07668e-18 0)
(8.43098e-16 -3.59745e-18 0)
(8.45557e-16 1.13849e-18 0)
(8.3876e-16 5.65821e-18 0)
(8.23502e-16 9.60025e-18 0)
(8.01195e-16 1.27071e-17 0)
(7.73662e-16 1.4825e-17 0)
(7.42927e-16 1.59108e-17 0)
(7.10999e-16 1.60173e-17 0)
(6.79769e-16 1.52124e-17 0)
(6.5119e-16 1.3367e-17 0)
(6.2824e-16 9.58272e-18 0)
(6.18313e-16 3.43622e-19 0)
(6.4516e-16 -2.71914e-17 0)
(3.36179e-16 -1.20378e-16 0)
(3.9561e-11 -6.07137e-11 0)
(3.40313e-11 1.02421e-11 0)
(5.69344e-11 -1.9401e-11 0)
(1.04119e-10 4.17634e-12 0)
(7.80468e-11 2.89675e-11 0)
(2.43693e-11 2.07683e-11 0)
(2.56693e-13 5.43031e-12 0)
(-1.73131e-12 -4.79697e-14 0)
(-2.30747e-13 -3.50796e-13 0)
(3.8589e-15 1.95416e-15 0)
(6.98253e-15 7.3527e-16 0)
(5.98831e-15 2.58946e-16 0)
(5.73946e-15 -1.00892e-17 0)
(6.03015e-15 -2.80601e-16 0)
(7.0737e-15 -7.62956e-16 0)
(3.91833e-15 -2.0001e-15 0)
(-4.99268e-12 3.3973e-13 0)
(-9.97766e-12 -4.07453e-13 0)
(-1.30796e-11 8.08342e-13 0)
(-1.85399e-11 5.17414e-12 0)
(-3.35034e-11 1.12344e-11 0)
(-5.52133e-11 9.88082e-12 0)
(-4.6387e-11 -1.1925e-11 0)
(2.42413e-11 -3.3887e-11 0)
(6.95511e-11 4.59041e-13 0)
(4.43098e-12 2.70602e-11 0)
(-2.80272e-11 -1.88996e-11 0)
(1.44813e-16 6.32694e-17 0)
(2.67098e-16 2.25246e-17 0)
(2.34673e-16 9.88848e-18 0)
(2.19185e-16 5.59279e-18 0)
(2.09572e-16 4.00919e-18 0)
(2.0219e-16 3.35105e-18 0)
(1.95813e-16 2.98677e-18 0)
(1.90092e-16 2.67425e-18 0)
(1.84995e-16 2.3357e-18 0)
(1.80578e-16 1.96457e-18 0)
(1.7687e-16 1.59165e-18 0)
(1.73844e-16 1.25906e-18 0)
(1.71362e-16 9.8016e-19 0)
(1.69566e-16 7.68112e-19 0)
(1.68403e-16 3.47161e-19 0)
(1.68582e-16 -5.94464e-20 0)
(1.76831e-16 -1.41616e-18 0)
(9.599e-17 -7.73336e-19 0)
(1.78688e-07 -3.61833e-08 0)
(2.03804e-07 -5.16859e-09 0)
(1.88339e-07 2.9378e-08 0)
(1.00592e-07 3.73304e-08 0)
(1.09954e-16 5.35472e-17 0)
(1.9234e-16 1.67138e-17 0)
(1.68476e-16 6.9993e-18 0)
(1.59691e-16 3.59568e-18 0)
(1.54718e-16 2.30889e-18 0)
(1.51033e-16 1.78412e-18 0)
(1.47854e-16 1.52923e-18 0)
(1.44986e-16 1.35092e-18 0)
(1.42428e-16 1.17434e-18 0)
(1.40231e-16 9.79474e-19 0)
(1.38439e-16 7.72477e-19 0)
(1.37062e-16 5.71916e-19 0)
(1.36065e-16 3.9866e-19 0)
(1.35378e-16 2.68078e-19 0)
(1.34915e-16 1.7943e-19 0)
(1.34625e-16 9.80266e-20 0)
(1.34611e-16 -9.27306e-20 0)
(1.38293e-16 -7.50459e-19 0)
(6.00015e-17 1.74582e-17 0)
(-1.11544e-07 1.7535e-07 0)
(-6.42254e-07 2.48571e-07 0)
(-1.15561e-06 2.12044e-07 0)
(-1.46145e-06 1.18728e-07 0)
(-1.48114e-06 6.58498e-09 0)
(-1.20282e-06 -9.9967e-08 0)
(-6.6132e-07 -1.87431e-07 0)
(8.40992e-08 -2.50545e-07 0)
(9.67266e-07 -2.89367e-07 0)
(1.92591e-06 -3.06967e-07 0)
(2.90764e-06 -3.0785e-07 0)
(3.87261e-06 -2.97e-07 0)
(4.79435e-06 -2.79441e-07 0)
(5.65979e-06 -2.60259e-07 0)
(6.46957e-06 -2.45032e-07 0)
(7.23725e-06 -2.4055e-07 0)
(7.98765e-06 -2.57031e-07 0)
(8.79238e-06 -3.15557e-07 0)
(9.87213e-06 -4.47729e-07 0)
(1.11761e-05 -6.23698e-07 0)
(3.38006e-05 -6.66224e-08 0)
(3.38214e-05 4.61432e-09 0)
(3.36559e-05 1.31422e-07 0)
(3.33257e-05 2.64259e-07 0)
(3.2837e-05 3.93658e-07 0)
(3.21858e-05 5.19661e-07 0)
(3.13691e-05 6.45467e-07 0)
(3.03816e-05 7.7506e-07 0)
(2.92146e-05 9.11781e-07 0)
(2.78567e-05 1.05767e-06 0)
(2.62955e-05 1.21309e-06 0)
(2.45199e-05 1.37639e-06 0)
(2.25227e-05 1.54342e-06 0)
(2.0304e-05 1.70704e-06 0)
(1.78751e-05 1.85648e-06 0)
(1.52629e-05 1.97679e-06 0)
(1.25153e-05 2.04862e-06 0)
(9.70586e-06 2.04849e-06 0)
(6.93728e-06 1.95036e-06 0)
(4.34238e-06 1.72929e-06 0)
(2.07881e-06 1.3683e-06 0)
(3.13859e-07 8.69793e-07 0)
(-8.05876e-07 2.72564e-07 0)
(-1.1999e-06 -3.26176e-07 0)
(-9.0798e-07 -7.48288e-07 0)
(-2.18055e-07 -7.29761e-07 0)
(3.99599e-17 -7.51242e-17 0)
(1.19208e-16 -1.7667e-18 0)
(1.16463e-16 -2.60052e-18 0)
(1.18665e-16 -2.6953e-18 0)
(1.20527e-16 -2.49059e-18 0)
(1.2211e-16 -2.25015e-18 0)
(1.23514e-16 -2.13162e-18 0)
(1.24882e-16 -2.2072e-18 0)
(1.26373e-16 -2.48051e-18 0)
(1.28119e-16 -2.90647e-18 0)
(1.30208e-16 -3.41208e-18 0)
(1.32664e-16 -3.91629e-18 0)
(1.35452e-16 -4.34937e-18 0)
(1.38494e-16 -4.67418e-18 0)
(1.41697e-16 -4.91041e-18 0)
(1.45005e-16 -5.15846e-18 0)
(1.4849e-16 -5.60801e-18 0)
(1.52466e-16 -6.48297e-18 0)
(1.57593e-16 -7.75806e-18 0)
(1.64401e-16 -8.027e-18 0)
(8.41519e-17 -1.67066e-19 0)
(2.76515e-10 -1.63199e-09 0)
(2.52036e-09 -2.40161e-09 0)
(4.41605e-09 -1.0142e-10 0)
(2.13696e-09 4.41872e-09 0)
(9.24955e-17 4.51242e-19 0)
(1.83796e-16 1.57788e-18 0)
(1.82428e-16 1.27912e-18 0)
(1.81684e-16 2.26134e-19 0)
(1.8185e-16 -1.03143e-18 0)
(1.82932e-16 -2.3979e-18 0)
(1.84981e-16 -3.89173e-18 0)
(1.88089e-16 -5.49101e-18 0)
(1.92312e-16 -7.10067e-18 0)
(1.97612e-16 -8.58301e-18 0)
(2.03833e-16 -9.82048e-18 0)
(2.10723e-16 -1.07953e-17 0)
(2.17998e-16 -1.16897e-17 0)
(2.2538e-16 -1.30494e-17 0)
(2.32477e-16 -1.61423e-17 0)
(2.37777e-16 -2.38935e-17 0)
(2.33661e-16 -4.35002e-17 0)
(1.83089e-16 -9.39544e-17 0)
(6.92639e-17 -2.33501e-21 0)
(3.54294e-11 -2.95788e-11 0)
(3.22338e-11 8.36997e-11 0)
(-8.49871e-11 5.28948e-11 0)
(-1.09181e-10 -3.29153e-11 0)
(-5.6042e-11 -5.12164e-11 0)
(-1.47833e-11 -2.91665e-11 0)
(-1.49569e-12 -8.98871e-12 0)
(-7.10908e-14 -7.31417e-13 0)
(-2.79993e-13 1.84918e-13 0)
(2.11218e-15 1.59629e-15 0)
(4.94881e-15 3.49992e-15 0)
(5.66844e-15 1.61128e-15 0)
(5.59476e-15 6.54245e-16 0)
(5.5208e-15 1.70736e-17 0)
(5.57442e-15 -6.18396e-16 0)
(5.62876e-15 -1.56917e-15 0)
(4.89706e-15 -3.44241e-15 0)
(2.08487e-15 -1.56411e-15 0)
(-1.39732e-12 -8.43446e-13 0)
(-3.99213e-13 -9.9247e-12 0)
(1.45083e-11 -2.01703e-11 0)
(1.08748e-11 4.76404e-11 0)
(-1.65412e-10 1.92471e-10 0)
(-4.10757e-10 7.89898e-11 0)
(-1.73562e-10 -3.33249e-10 0)
(2.71383e-16 -3.38689e-20 0)
(5.60392e-16 -4.05546e-17 0)
(5.98591e-16 -5.4292e-17 0)
(6.39127e-16 -5.68181e-17 0)
(6.78094e-16 -5.61563e-17 0)
(7.15548e-16 -5.48083e-17 0)
(7.51858e-16 -5.31204e-17 0)
(7.86944e-16 -5.06879e-17 0)
(8.20157e-16 -4.69043e-17 0)
(8.50363e-16 -4.12908e-17 0)
(8.76161e-16 -3.36808e-17 0)
(8.9614e-16 -2.42373e-17 0)
(9.09081e-16 -1.3386e-17 0)
(9.14072e-16 -1.83242e-18 0)
(9.10682e-16 9.20383e-18 0)
(8.99388e-16 1.74837e-17 0)
(8.82718e-16 1.8797e-17 0)
(8.69289e-16 4.72969e-18 0)
(8.88731e-16 -4.26029e-17 0)
(4.65405e-16 -1.6159e-16 0)
(8.84977e-08 1.2907e-08 0)
(-3.70441e-07 7.56806e-07 0)
(-1.0987e-06 3.75341e-07 0)
(-1.12343e-06 -4.43509e-07 0)
(-3.08259e-07 -7.17316e-07 0)
(6.93383e-17 -1.12288e-16 0)
(1.93626e-16 -3.23542e-17 0)
(1.96635e-16 -3.52105e-17 0)
(2.17625e-16 -4.05997e-17 0)
(2.4496e-16 -5.25232e-17 0)
(2.82845e-16 -7.32355e-17 0)
(3.37872e-16 -1.03858e-16 0)
(4.16911e-16 -1.43449e-16 0)
(5.25731e-16 -1.90031e-16 0)
(6.6858e-16 -2.40893e-16 0)
(8.47776e-16 -2.92165e-16 0)
(1.06269e-15 -3.37871e-16 0)
(1.3076e-15 -3.68724e-16 0)
(1.56866e-15 -3.7245e-16 0)
(1.8242e-15 -3.39621e-16 0)
(2.04735e-15 -2.61941e-16 0)
(2.2045e-15 -1.27578e-16 0)
(2.26367e-15 6.3994e-17 0)
(2.19391e-15 3.43228e-16 0)
(1.58984e-15 5.77206e-16 0)
(2.64593e-15 -3.99295e-15 0)
(2.19908e-05 -4.00581e-05 0)
(0.000112847 -6.20274e-05 0)
(0.000196813 -6.30471e-05 0)
(0.000266713 -5.39627e-05 0)
(0.000323491 -4.39854e-05 0)
(0.000370843 -3.79379e-05 0)
(0.000414782 -3.77577e-05 0)
(0.000462172 -4.39028e-05 0)
(0.000519716 -5.61077e-05 0)
(0.000593342 -7.37056e-05 0)
(0.000687707 -9.57572e-05 0)
(0.000805874 -0.000121185 0)
(0.000949038 -0.000148778 0)
(0.00111536 -0.000177216 0)
(0.00130047 -0.000208325 0)
(0.00150611 -0.000250175 0)
(0.00173871 -0.000294435 0)
(0.00200199 -0.000311221 0)
(0.0021946 -0.000184635 0)
(0.00219648 0.000174101 0)
(0.00202276 0.000270221 0)
(0.00182831 0.000198447 0)
(0.00170492 0.000141518 0)
(0.00158784 0.000151767 0)
(0.00143769 0.000170881 0)
(0.00126462 0.000176758 0)
(0.00108171 0.000181808 0)
(0.000888891 0.000185787 0)
(0.000688399 0.000189924 0)
(0.000481414 0.00019138 0)
(0.00026775 0.00017513 0)
(5.52554e-05 0.000114495 0)
(5.20679e-15 1.22239e-14 0)
(3.18723e-16 4.61831e-16 0)
(7.42919e-16 2.37009e-16 0)
(4.86418e-16 1.47824e-16 0)
(3.83279e-16 1.13711e-16 0)
(3.09548e-16 1.00594e-16 0)
(2.46933e-16 7.78878e-17 0)
(2.02345e-16 4.84984e-17 0)
(1.79208e-16 1.49862e-17 0)
(1.79513e-16 -2.23174e-17 0)
(2.05922e-16 -6.49121e-17 0)
(2.62969e-16 -1.14747e-16 0)
(3.56759e-16 -1.71966e-16 0)
(4.926e-16 -2.32453e-16 0)
(6.70638e-16 -2.86712e-16 0)
(8.80713e-16 -3.22094e-16 0)
(1.10107e-15 -3.33179e-16 0)
(1.3796e-15 -4.10632e-16 0)
(2.02706e-15 -6.40711e-16 0)
(1.22888e-15 -1.21405e-15 0)
(1.21469e-14 -2.62862e-14 0)
(0.00012551 -0.000246115 0)
(0.000561316 -0.000337708 0)
(0.000936372 -0.000307933 0)
(0.00122374 -0.000230818 0)
(0.00142327 -0.000148421 0)
(0.00154189 -7.92514e-05 0)
(0.00160026 -3.49471e-05 0)
(0.00162443 -1.17047e-05 0)
(0.00163136 -9.45561e-08 0)
(0.00162816 8.10301e-06 0)
(0.00161478 1.94304e-05 0)
(0.00158456 3.86689e-05 0)
(0.00152726 6.43914e-05 0)
(0.00144151 8.48688e-05 0)
(0.00133799 9.44034e-05 0)
(0.00122881 9.49994e-05 0)
(0.00112156 9.03306e-05 0)
(0.00102005 8.34318e-05 0)
(0.000925582 7.61642e-05 0)
(0.000838172 6.93065e-05 0)
(0.000757522 6.29255e-05 0)
(0.000683434 5.69172e-05 0)
(0.000615766 5.12371e-05 0)
(0.000554317 4.59311e-05 0)
(0.000498734 4.11488e-05 0)
(0.000448394 3.71619e-05 0)
(0.000402267 3.43583e-05 0)
(0.000358809 3.31822e-05 0)
(0.000315955 3.39923e-05 0)
(0.000271301 3.68115e-05 0)
(0.0002226 4.0942e-05 0)
(0.00016872 4.44674e-05 0)
(0.00011087 4.3873e-05 0)
(5.28874e-05 3.44051e-05 0)
(4.3854e-06 1.30499e-05 0)
(8.20205e-16 1.16465e-15 0)
(1.05388e-15 -3.92343e-16 0)
(1.35652e-15 -2.38311e-16 0)
(1.46276e-15 -1.30799e-16 0)
(1.51271e-15 -5.53921e-17 0)
(1.52354e-15 -1.38086e-18 0)
(1.50531e-15 3.96876e-17 0)
(1.46382e-15 7.14934e-17 0)
(1.40418e-15 9.41953e-17 0)
(1.33257e-15 1.0659e-16 0)
(1.25634e-15 1.07873e-16 0)
(1.18322e-15 9.83361e-17 0)
(1.12032e-15 7.93205e-17 0)
(1.07353e-15 5.28668e-17 0)
(1.04713e-15 2.13766e-17 0)
(1.0437e-15 -1.26043e-17 0)
(1.06407e-15 -4.64505e-17 0)
(1.1073e-15 -7.74221e-17 0)
(1.17057e-15 -1.02614e-16 0)
(1.24902e-15 -1.1897e-16 0)
(1.33567e-15 -1.2342e-16 0)
(1.42149e-15 -1.13172e-16 0)
(1.49573e-15 -8.60092e-17 0)
(1.54641e-15 -4.02589e-17 0)
(1.56044e-15 2.5788e-17 0)
(1.52282e-15 1.14141e-16 0)
(1.41818e-15 2.22648e-16 0)
(1.25025e-15 3.30098e-16 0)
(8.34808e-16 3.36948e-16 0)
(1.52037e-15 -2.51097e-15 0)
(1.31288e-05 -2.46415e-05 0)
(7.10343e-05 -3.98779e-05 0)
(0.000129236 -4.38407e-05 0)
(0.000182729 -4.09169e-05 0)
(0.000230193 -3.57447e-05 0)
(0.000271801 -3.11331e-05 0)
(0.000309318 -2.83679e-05 0)
(0.00034523 -2.78298e-05 0)
(0.000382081 -2.94301e-05 0)
(0.000422143 -3.28802e-05 0)
(0.000467298 -3.78441e-05 0)
(0.000519022 -4.40024e-05 0)
(0.000578399 -5.10544e-05 0)
(0.000646122 -5.86796e-05 0)
(0.000722431 -6.64848e-05 0)
(0.000806997 -7.39593e-05 0)
(0.000898776 -8.04762e-05 0)
(0.000996009 -8.53293e-05 0)
(0.00109629 -8.74617e-05 0)
(0.00119584 -8.46435e-05 0)
(0.00128778 -7.37174e-05 0)
(0.00136107 -5.32248e-05 0)
(0.00140688 -2.99817e-05 0)
(0.00143068 -1.67315e-05 0)
(0.00144525 -1.11714e-05 0)
(0.00145408 -5.20842e-06 0)
(0.00145435 3.65891e-06 0)
(0.00144183 1.99908e-05 0)
(0.00140627 5.22905e-05 0)
(0.00132663 0.000110607 0)
(0.00117256 0.000196711 0)
(0.00092154 0.000287467 0)
(0.000566312 0.000333614 0)
(0.000130867 0.000253003 0)
(1.29611e-14 2.69618e-14 0)
(1.80315e-15 1.30353e-15 0)
(2.56015e-15 7.23324e-16 0)
(1.82993e-15 5.4471e-16 0)
(1.39756e-15 5.94909e-16 0)
(9.88828e-16 5.33015e-16 0)
(6.51724e-16 4.3694e-16 0)
(3.95713e-16 3.24226e-16 0)
(2.1819e-16 2.23892e-16 0)
(1.03317e-16 1.42563e-16 0)
(3.61029e-17 7.90579e-17 0)
(4.87074e-18 2.93835e-17 0)
(1.83849e-18 -1.15947e-17 0)
(2.32433e-17 -4.88143e-17 0)
(6.89006e-17 -8.58022e-17 0)
(1.4063e-16 -1.22486e-16 0)
(2.3608e-16 -1.50222e-16 0)
(3.51345e-16 -1.69359e-16 0)
(4.82297e-16 -1.66755e-16 0)
(7.30115e-16 -2.30331e-16 0)
(3.51728e-16 -4.22922e-16 0)
(4.7779e-15 -1.11223e-14 0)
(5.0363e-05 -0.000104289 0)
(0.000244315 -0.000159786 0)
(0.0004396 -0.000174927 0)
(0.000629124 -0.000174085 0)
(0.000813285 -0.000171336 0)
(0.00099163 -0.000170188 0)
(0.0011635 -0.000171335 0)
(0.00133156 -0.000178192 0)
(0.00149061 -0.000183864 0)
(0.00164744 -0.00020669 0)
(0.00183728 -0.000262826 0)
(0.00201706 -0.000218817 0)
(0.00210209 1.40114e-07 0)
(0.0020162 0.000225741 0)
(0.00182134 0.000292923 0)
(0.00158372 0.000266046 0)
(0.00137403 0.000224677 0)
(0.00118782 0.000187663 0)
(0.00101967 0.000160582 0)
(0.000867918 0.000135649 0)
(0.000736553 0.00011129 0)
(0.000627211 8.88671e-05 0)
(0.000538692 6.95847e-05 0)
(0.000468072 5.44725e-05 0)
(0.000410974 4.43835e-05 0)
(0.000361923 3.98345e-05 0)
(0.000314904 4.08099e-05 0)
(0.000264124 4.63322e-05 0)
(0.000205361 5.35986e-05 0)
(0.000138411 5.67659e-05 0)
(6.88827e-05 4.56751e-05 0)
(1.06224e-14 1.31547e-14 0)
(1.16899e-15 -6.72378e-16 0)
(2.14799e-15 -7.29374e-16 0)
(2.55175e-15 -3.24292e-16 0)
(2.64437e-15 -1.36201e-17 0)
(2.54391e-15 2.13387e-16 0)
(2.32261e-15 3.50191e-16 0)
(2.03964e-15 4.17697e-16 0)
(1.73608e-15 4.32418e-16 0)
(1.442e-15 4.09277e-16 0)
(1.17648e-15 3.6439e-16 0)
(9.48561e-16 3.09277e-16 0)
(7.61249e-16 2.51307e-16 0)
(6.13919e-16 1.95468e-16 0)
(5.03366e-16 1.45489e-16 0)
(4.24201e-16 1.04338e-16 0)
(3.69193e-16 7.39207e-17 0)
(3.30437e-16 5.39058e-17 0)
(3.0069e-16 4.22934e-17 0)
(2.74628e-16 3.45583e-17 0)
(2.58604e-16 2.29046e-17 0)
(9.79332e-17 8.07556e-17 0)
(-2.99661e-07 7.95446e-07 0)
(-1.08309e-06 4.08561e-07 0)
(-1.06433e-06 -4.04116e-07 0)
(-2.82744e-07 -7.39845e-07 0)
(3.34114e-16 -7.55441e-17 0)
(7.30235e-16 -2.79311e-17 0)
(7.53521e-16 -4.28776e-17 0)
(7.87355e-16 -4.38644e-17 0)
(8.17239e-16 -3.67635e-17 0)
(8.39529e-16 -2.50839e-17 0)
(8.52313e-16 -1.10491e-17 0)
(8.54813e-16 3.63168e-18 0)
(8.47222e-16 1.75523e-17 0)
(8.30551e-16 2.96359e-17 0)
(8.06419e-16 3.91103e-17 0)
(7.76866e-16 4.55069e-17 0)
(7.44119e-16 4.87119e-17 0)
(7.103e-16 4.89632e-17 0)
(6.77119e-16 4.66777e-17 0)
(6.4556e-16 4.20397e-17 0)
(6.15217e-16 3.4203e-17 0)
(5.81539e-16 1.93268e-17 0)
(5.24445e-16 -1.59282e-17 0)
(3.63366e-16 -1.18116e-16 0)
(1.20353e-16 8.66159e-21 0)
(-2.18279e-10 1.24815e-10 0)
(-1.31578e-10 -1.14274e-10 0)
(8.2486e-11 -2.16833e-11 0)
(8.7679e-11 9.12383e-11 0)
(1.90293e-11 6.98262e-11 0)
(-1.91651e-12 1.72731e-11 0)
(-7.8347e-13 8.33974e-13 0)
(1.95416e-15 1.46235e-15 0)
(4.59417e-15 3.22249e-15 0)
(5.28731e-15 1.46324e-15 0)
(5.24295e-15 5.69551e-16 0)
(5.19991e-15 -2.87911e-17 0)
(5.27728e-15 -6.2996e-16 0)
(5.3542e-15 -1.53408e-15 0)
(4.68129e-15 -3.31911e-15 0)
(2.0001e-15 -1.51627e-15 0)
(-1.27945e-11 -2.45509e-12 0)
(-1.53341e-11 1.99472e-13 0)
(-1.82394e-11 1.22645e-11 0)
(-3.04987e-11 3.37743e-11 0)
(-6.12041e-11 2.61111e-11 0)
(-3.35282e-11 -6.44099e-11 0)
(1.48949e-10 -1.53198e-10 0)
(2.67411e-10 3.34718e-12 0)
(7.06361e-11 1.46944e-10 0)
(6.32792e-17 1.50268e-20 0)
(1.6734e-16 8.57336e-17 0)
(2.13716e-16 3.94262e-17 0)
(2.17741e-16 2.13189e-17 0)
(2.13305e-16 1.40651e-17 0)
(2.0733e-16 1.1098e-17 0)
(2.01167e-16 9.75922e-18 0)
(1.95137e-16 8.90454e-18 0)
(1.89441e-16 8.04904e-18 0)
(1.84286e-16 7.03799e-18 0)
(1.79834e-16 5.89815e-18 0)
(1.76164e-16 4.74705e-18 0)
(1.73232e-16 3.71752e-18 0)
(1.70871e-16 2.88618e-18 0)
(1.68933e-16 2.23721e-18 0)
(1.67575e-16 1.35743e-18 0)
(1.66819e-16 1.18132e-19 0)
(1.76515e-16 -2.45619e-18 0)
(9.5081e-17 -3.48545e-18 0)
(2.94328e-07 -7.61585e-08 0)
(2.97733e-07 -4.96397e-09 0)
(2.67571e-07 6.00708e-08 0)
(5.37541e-17 5.68629e-18 0)
(1.21832e-16 6.80708e-17 0)
(1.48857e-16 2.92142e-17 0)
(1.55358e-16 1.47728e-17 0)
(1.55e-16 8.7573e-18 0)
(1.52907e-16 6.22066e-18 0)
(1.50253e-16 5.11156e-18 0)
(1.47421e-16 4.52512e-18 0)
(1.44631e-16 4.05674e-18 0)
(1.42057e-16 3.54386e-18 0)
(1.39829e-16 2.95133e-18 0)
(1.38032e-16 2.31143e-18 0)
(1.36688e-16 1.68849e-18 0)
(1.35761e-16 1.15347e-18 0)
(1.35159e-16 7.62258e-19 0)
(1.34745e-16 5.31115e-19 0)
(1.34353e-16 4.03402e-19 0)
(1.33762e-16 1.88913e-19 0)
(1.37954e-16 -5.81514e-19 0)
(5.00627e-17 7.44219e-17 0)
(-2.15306e-07 7.30018e-07 0)
(-1.15971e-06 9.39185e-07 0)
(-1.92931e-06 7.16276e-07 0)
(-2.19038e-06 2.50992e-07 0)
(-1.80893e-06 -3.00671e-07 0)
(-7.67227e-07 -8.29461e-07 0)
(8.59701e-07 -1.27047e-06 0)
(2.94366e-06 -1.59472e-06 0)
(5.33866e-06 -1.7986e-06 0)
(7.90459e-06 -1.89425e-06 0)
(1.05213e-05 -1.90229e-06 0)
(1.30956e-05 -1.84696e-06 0)
(1.55639e-05 -1.75332e-06 0)
(1.78922e-05 -1.64634e-06 0)
(2.00753e-05 -1.55136e-06 0)
(2.21328e-05 -1.49529e-06 0)
(2.40972e-05 -1.50986e-06 0)
(2.60533e-05 -1.64173e-06 0)
(2.82687e-05 -1.93947e-06 0)
(3.05383e-05 -2.30203e-06 0)
(5.57597e-05 -2.71941e-08 0)
(5.56797e-05 1.82913e-07 0)
(5.53301e-05 4.85862e-07 0)
(5.47544e-05 8.113e-07 0)
(5.39601e-05 1.14003e-06 0)
(5.29359e-05 1.47028e-06 0)
(5.16719e-05 1.8073e-06 0)
(5.01564e-05 2.15843e-06 0)
(4.8374e-05 2.53008e-06 0)
(4.63065e-05 2.92595e-06 0)
(4.39351e-05 3.34593e-06 0)
(4.12428e-05 3.785e-06 0)
(3.82185e-05 4.23207e-06 0)
(3.48607e-05 4.66866e-06 0)
(3.11828e-05 5.06761e-06 0)
(2.72192e-05 5.39191e-06 0)
(2.30318e-05 5.5944e-06 0)
(1.87157e-05 5.61889e-06 0)
(1.44048e-05 5.40425e-06 0)
(1.02731e-05 4.89312e-06 0)
(6.52958e-06 4.04769e-06 0)
(3.40198e-06 2.8747e-06 0)
(1.10381e-06 1.46121e-06 0)
(-2.17652e-07 1.96494e-08 0)
(-5.54555e-07 -1.07328e-06 0)
(-1.9445e-07 -1.28967e-06 0)
(4.1308e-17 -1.34067e-16 0)
(1.18117e-16 -5.09474e-18 0)
(1.16305e-16 -5.23685e-18 0)
(1.18891e-16 -4.84665e-18 0)
(1.20888e-16 -4.19815e-18 0)
(1.2238e-16 -3.61874e-18 0)
(1.23553e-16 -3.33968e-18 0)
(1.24647e-16 -3.46079e-18 0)
(1.25895e-16 -3.96563e-18 0)
(1.27483e-16 -4.75591e-18 0)
(1.2952e-16 -5.68794e-18 0)
(1.32028e-16 -6.60496e-18 0)
(1.34946e-16 -7.3672e-18 0)
(1.38134e-16 -7.8861e-18 0)
(1.41402e-16 -8.16878e-18 0)
(1.44569e-16 -8.37549e-18 0)
(1.47582e-16 -8.88966e-18 0)
(1.50815e-16 -1.0409e-17 0)
(1.55977e-16 -1.41223e-17 0)
(1.69758e-16 -2.22581e-17 0)
(9.00674e-17 -4.04672e-17 0)
(2.50047e-11 -3.34475e-09 0)
(1.36242e-09 -5.79755e-09 0)
(3.79809e-09 -1.37157e-09 0)
(3.63118e-09 1.25114e-08 0)
(9.38444e-17 1.30554e-18 0)
(1.84734e-16 4.71957e-18 0)
(1.81413e-16 2.97289e-18 0)
(1.80074e-16 6.15848e-19 0)
(1.8008e-16 -1.59325e-18 0)
(1.81018e-16 -3.85529e-18 0)
(1.82905e-16 -6.37097e-18 0)
(1.85927e-16 -9.14128e-18 0)
(1.90228e-16 -1.19748e-17 0)
(1.95792e-16 -1.45728e-17 0)
(2.02391e-16 -1.66501e-17 0)
(2.09597e-16 -1.80619e-17 0)
(2.16817e-16 -1.89181e-17 0)
(2.23297e-16 -1.96834e-17 0)
(2.27953e-16 -2.12608e-17 0)
(2.28807e-16 -2.49291e-17 0)
(2.21859e-16 -3.14005e-17 0)
(2.01837e-16 -3.54632e-17 0)
(9.39658e-17 -1.45142e-20 0)
(1.12569e-10 -1.48548e-10 0)
(2.03947e-10 2.13872e-10 0)
(-5.27825e-11 1.43534e-10 0)
(-1.10898e-10 -6.67841e-11 0)
(-3.27536e-11 -1.02071e-10 0)