/*--------------------------------*- C++ -*----------------------------------*\
  =========                 |
  \\      /  F ield         | OpenFOAM: The Open Source CFD Toolbox
   \\    /   O peration     | Website:  https://openfoam.org
    \\  /    A nd           | Version:  7
     \\/     M anipulation  |
\*---------------------------------------------------------------------------*/
FoamFile
{
    version     2.0;
    format      ascii;
    class       volScalarField;
    location    "5";
    object      C;
}
// * * * * * * * * * * * * * * * * * * * * * * * * * * * * * * * * * * * * * //

dimensions      [0 0 0 0 0 0 0];

internalField   nonuniform List<scalar> 
5625
(
0.01
0.01
0.01
0.01
0.01
0.01
0.01
0.01
0.01
0.01
0.01
0.01
0.01
0.01
0.01
0.01
0.01
0.01
0.01
0.01
0.01
0.01
0.01
0.01
0.01
0.01
0.01
0.01
0.01
0.00999999
0.00999999
0.00999999
0.00999999
0.00999998
0.00999998
0.00999997
0.00999997
0.00999996
0.00999995
0.00999994
0.00999993
0.00999991
0.0099999
0.00999988
0.00999986
0.00999983
0.00999981
0.00999978
0.00999975
0.00999972
0.00999968
0.00999964
0.00999959
0.00999954
0.00999949
0.00999944
0.00999937
0.00999931
0.00999924
0.00999916
0.00999908
0.009999
0.00999891
0.00999882
0.00999872
0.00999861
0.0099985
0.00999839
0.00999827
0.00999816
0.00999804
0.00999793
0.00999783
0.00999776
0.00999771
0.01
0.01
0.01
0.01
0.01
0.01
0.01
0.01
0.01
0.01
0.01
0.01
0.01
0.01
0.01
0.01
0.01
0.01
0.01
0.01
0.01
0.01
0.01
0.01
0.01
0.01
0.01
0.01
0.01
0.00999999
0.00999999
0.00999999
0.00999999
0.00999998
0.00999998
0.00999997
0.00999996
0.00999996
0.00999995
0.00999993
0.00999992
0.00999991
0.00999989
0.00999987
0.00999985
0.00999983
0.0099998
0.00999977
0.00999974
0.00999971
0.00999967
0.00999963
0.00999958
0.00999953
0.00999948
0.00999942
0.00999936
0.00999929
0.00999922
0.00999915
0.00999907
0.00999898
0.00999889
0.0099988
0.0099987
0.00999859
0.00999848
0.00999837
0.00999825
0.00999813
0.00999801
0.0099979
0.0099978
0.00999771
0.00999766
0.01
0.01
0.01
0.01
0.01
0.01
0.01
0.01
0.01
0.01
0.01
0.01
0.01
0.01
0.01
0.01
0.01
0.01
0.01
0.01
0.01
0.01
0.01
0.01
0.01
0.01
0.01
0.01
0.01
0.00999999
0.00999999
0.00999999
0.00999998
0.00999998
0.00999997
0.00999996
0.00999995
0.00999994
0.00999993
0.00999992
0.0099999
0.00999988
0.00999986
0.00999984
0.00999982
0.00999979
0.00999976
0.00999973
0.0099997
0.00999966
0.00999962
0.00999957
0.00999953
0.00999947
0.00999942
0.00999936
0.0099993
0.00999923
0.00999916
0.00999908
0.009999
0.00999891
0.00999882
0.00999872
0.00999862
0.00999851
0.0099984
0.00999829
0.00999817
0.00999804
0.00999792
0.0099978
0.00999769
0.0099976
0.00999754
0.01
0.01
0.01
0.01
0.01
0.01
0.01
0.01
0.01
0.01
0.01
0.01
0.01
0.01
0.01
0.01
0.01
0.01
0.01
0.01
0.01
0.01
0.01
0.01
0.01
0.01
0.01
0.00999999
0.00999999
0.00999999
0.00999998
0.00999998
0.00999997
0.00999996
0.00999995
0.00999994
0.00999992
0.00999991
0.00999989
0.00999987
0.00999985
0.00999983
0.0099998
0.00999977
0.00999974
0.00999971
0.00999967
0.00999963
0.00999959
0.00999955
0.0099995
0.00999945
0.00999939
0.00999934
0.00999928
0.00999921
0.00999914
0.00999907
0.00999899
0.00999891
0.00999883
0.00999874
0.00999864
0.00999854
0.00999844
0.00999833
0.00999821
0.00999809
0.00999797
0.00999785
0.00999772
0.00999759
0.00999748
0.00999737
0.00999731
0.01
0.01
0.01
0.01
0.01
0.01
0.01
0.01
0.01
0.01
0.01
0.01
0.01
0.01
0.01
0.01
0.01
0.01
0.01
0.01
0.01
0.01
0.01
0.01
0.01
0.01
0.00999999
0.00999999
0.00999998
0.00999998
0.00999997
0.00999996
0.00999994
0.00999992
0.0099999
0.00999988
0.00999986
0.00999983
0.0099998
0.00999977
0.00999974
0.0099997
0.00999966
0.00999962
0.00999957
0.00999953
0.00999948
0.00999943
0.00999937
0.00999932
0.00999926
0.0099992
0.00999914
0.00999907
0.009999
0.00999893
0.00999885
0.00999877
0.00999869
0.0099986
0.00999851
0.00999841
0.00999831
0.00999821
0.0099981
0.00999798
0.00999787
0.00999774
0.00999762
0.00999749
0.00999736
0.00999723
0.0099971
0.00999699
0.00999692
0.01
0.01
0.01
0.01
0.01
0.01
0.01
0.01
0.01
0.01
0.01
0.01
0.01
0.01
0.01
0.01
0.01
0.01
0.01
0.01
0.01
0.01
0.01
0.01
0.00999999
0.00999999
0.00999999
0.00999998
0.00999997
0.00999995
0.00999993
0.0099999
0.00999987
0.00999984
0.0099998
0.00999975
0.00999971
0.00999966
0.00999961
0.00999955
0.0099995
0.00999943
0.00999937
0.00999931
0.00999924
0.00999917
0.0099991
0.00999903
0.00999896
0.00999889
0.00999881
0.00999874
0.00999866
0.00999858
0.0099985
0.00999842
0.00999834
0.00999825
0.00999816
0.00999806
0.00999796
0.00999786
0.00999776
0.00999765
0.00999753
0.00999741
0.00999729
0.00999716
0.00999703
0.0099969
0.00999676
0.00999663
0.0099965
0.00999639
0.0099963
0.01
0.01
0.01
0.01
0.01
0.01
0.01
0.01
0.01
0.01
0.01
0.01
0.01
0.01
0.01
0.01
0.01
0.01
0.01
0.01
0.01
0.01
0.01
0.00999999
0.00999999
0.00999998
0.00999997
0.00999995
0.00999992
0.00999988
0.00999984
0.00999978
0.00999972
0.00999964
0.00999956
0.00999947
0.00999939
0.00999929
0.0099992
0.0099991
0.009999
0.0099989
0.00999879
0.00999869
0.00999859
0.00999848
0.00999838
0.00999829
0.00999819
0.0099981
0.00999801
0.00999791
0.00999782
0.00999773
0.00999765
0.00999755
0.00999746
0.00999737
0.00999727
0.00999718
0.00999707
0.00999697
0.00999686
0.00999675
0.00999663
0.00999651
0.00999638
0.00999625
0.00999612
0.00999599
0.00999585
0.00999572
0.00999559
0.00999547
0.00999538
0.01
0.01
0.01
0.01
0.01
0.01
0.01
0.01
0.01
0.01
0.01
0.01
0.01
0.01
0.01
0.01
0.01
0.01
0.01
0.01
0.01
0.01
0.00999999
0.00999998
0.00999997
0.00999995
0.00999992
0.00999988
0.00999981
0.00999973
0.00999963
0.00999951
0.00999936
0.0099992
0.00999903
0.00999886
0.00999868
0.00999851
0.00999833
0.00999815
0.00999797
0.0099978
0.00999763
0.00999746
0.00999731
0.00999716
0.00999702
0.0099969
0.00999677
0.00999666
0.00999656
0.00999646
0.00999636
0.00999627
0.00999618
0.0099961
0.00999601
0.00999593
0.00999584
0.00999575
0.00999565
0.00999556
0.00999545
0.00999535
0.00999524
0.00999512
0.009995
0.00999487
0.00999475
0.00999462
0.00999449
0.00999436
0.00999423
0.00999412
0.00999403
0.01
0.01
0.01
0.01
0.01
0.01
0.01
0.01
0.01
0.01
0.01
0.01
0.01
0.01
0.01
0.01
0.01
0.01
0.01
0.01
0.00999999
0.00999999
0.00999998
0.00999996
0.00999993
0.00999988
0.00999981
0.00999971
0.00999957
0.00999938
0.00999915
0.00999888
0.00999856
0.00999822
0.00999787
0.00999751
0.00999717
0.00999683
0.00999651
0.00999618
0.00999588
0.00999559
0.00999531
0.00999507
0.00999484
0.00999464
0.00999447
0.00999432
0.00999419
0.00999408
0.00999399
0.00999391
0.00999384
0.00999378
0.00999373
0.00999368
0.00999363
0.00999358
0.00999353
0.00999348
0.00999342
0.00999336
0.00999328
0.0099932
0.00999312
0.00999303
0.00999293
0.00999282
0.00999271
0.0099926
0.00999248
0.00999237
0.00999226
0.00999216
0.00999209
0.01
0.01
0.01
0.01
0.01
0.01
0.01
0.01
0.01
0.01
0.01
0.01
0.01
0.01
0.01
0.01
0.01
0.01
0.01
0.00999999
0.00999999
0.00999997
0.00999995
0.00999991
0.00999984
0.00999972
0.00999956
0.00999932
0.009999
0.00999858
0.00999807
0.00999747
0.0099968
0.00999608
0.00999535
0.00999463
0.00999396
0.00999334
0.00999274
0.00999218
0.00999166
0.00999119
0.00999078
0.00999043
0.00999014
0.00998991
0.00998973
0.00998961
0.00998953
0.00998949
0.00998948
0.00998949
0.00998953
0.00998958
0.00998964
0.0099897
0.00998976
0.00998982
0.00998987
0.00998991
0.00998994
0.00998996
0.00998997
0.00998996
0.00998994
0.0099899
0.00998986
0.0099898
0.00998974
0.00998967
0.00998959
0.00998951
0.00998944
0.00998937
0.00998932
0.01
0.01
0.01
0.01
0.01
0.01
0.01
0.01
0.01
0.01
0.01
0.01
0.01
0.01
0.01
0.01
0.01
0.01
0.00999999
0.00999999
0.00999997
0.00999994
0.00999988
0.00999978
0.00999962
0.00999936
0.00999899
0.00999845
0.00999774
0.00999682
0.00999571
0.00999443
0.00999301
0.00999152
0.00999003
0.00998863
0.00998736
0.00998622
0.00998516
0.0099842
0.00998336
0.00998265
0.00998208
0.00998165
0.00998135
0.00998118
0.00998111
0.00998115
0.00998127
0.00998145
0.00998169
0.00998197
0.00998228
0.0099826
0.00998293
0.00998325
0.00998356
0.00998385
0.00998413
0.00998438
0.0099846
0.0099848
0.00998497
0.00998511
0.00998522
0.0099853
0.00998537
0.00998541
0.00998544
0.00998545
0.00998545
0.00998544
0.00998543
0.00998543
0.00998542
0.01
0.01
0.01
0.01
0.01
0.01
0.01
0.01
0.01
0.01
0.01
0.01
0.01
0.01
0.01
0.01
0.01
0.00999999
0.00999998
0.00999997
0.00999993
0.00999986
0.00999972
0.0099995
0.00999913
0.00999856
0.00999773
0.00999656
0.00999501
0.00999305
0.0099907
0.00998802
0.00998511
0.00998211
0.00997918
0.00997648
0.00997412
0.00997209
0.00997027
0.00996871
0.00996744
0.00996646
0.00996579
0.00996541
0.0099653
0.00996543
0.00996577
0.00996628
0.00996694
0.0099677
0.00996853
0.00996941
0.00997032
0.00997122
0.00997211
0.00997296
0.00997378
0.00997455
0.00997526
0.00997591
0.00997651
0.00997704
0.00997751
0.00997793
0.00997829
0.0099786
0.00997887
0.00997909
0.00997928
0.00997944
0.00997958
0.0099797
0.00997981
0.00997991
0.00997999
0.01
0.01
0.01
0.01
0.01
0.01
0.01
0.01
0.01
0.01
0.01
0.01
0.01
0.01
0.01
0.01
0.00999999
0.00999998
0.00999996
0.00999992
0.00999983
0.00999967
0.00999938
0.00999888
0.00999808
0.00999685
0.00999505
0.00999257
0.00998931
0.00998525
0.00998043
0.00997501
0.00996922
0.00996337
0.00995777
0.00995274
0.0099485
0.00994499
0.009942
0.0099396
0.00993782
0.00993668
0.00993616
0.00993621
0.00993678
0.00993779
0.00993916
0.00994082
0.00994269
0.0099447
0.00994679
0.0099489
0.009951
0.00995305
0.00995502
0.00995689
0.00995865
0.00996029
0.0099618
0.00996318
0.00996443
0.00996556
0.00996657
0.00996747
0.00996827
0.00996897
0.00996958
0.00997011
0.00997058
0.00997099
0.00997136
0.00997169
0.00997199
0.00997226
0.00997248
0.01
0.01
0.01
0.01
0.01
0.01
0.01
0.01
0.01
0.01
0.01
0.01
0.01
0.01
0.01
0.00999999
0.00999998
0.00999996
0.00999992
0.00999982
0.00999963
0.00999928
0.00999865
0.00999759
0.00999589
0.0099933
0.00998958
0.00998448
0.00997787
0.00996972
0.00996019
0.00994962
0.00993851
0.00992747
0.00991714
0.00990809
0.00990072
0.00989489
0.0098902
0.00988675
0.0098846
0.00988372
0.00988403
0.00988541
0.00988772
0.00989078
0.00989442
0.00989849
0.00990283
0.00990732
0.00991183
0.00991629
0.00992061
0.00992476
0.00992868
0.00993235
0.00993576
0.0099389
0.00994178
0.0099444
0.00994676
0.00994889
0.00995079
0.00995248
0.00995399
0.00995531
0.00995649
0.00995752
0.00995844
0.00995925
0.00995998
0.00996063
0.00996124
0.00996179
0.00996222
0.01
0.01
0.01
0.01
0.01
0.01
0.01
0.01
0.01
0.01
0.01
0.01
0.01
0.01
0.00999999
0.00999999
0.00999997
0.00999992
0.00999982
0.00999962
0.00999922
0.00999847
0.00999716
0.00999496
0.00999148
0.00998624
0.00997879
0.00996872
0.00995581
0.00994009
0.00992193
0.00990208
0.00988154
0.00986151
0.00984317
0.0098275
0.00981516
0.00980586
0.0097989
0.00979443
0.00979246
0.0097929
0.00979553
0.00980007
0.00980616
0.00981346
0.00982163
0.00983035
0.00983935
0.00984839
0.00985728
0.0098659
0.00987411
0.00988186
0.0098891
0.0098958
0.00990195
0.00990757
0.00991267
0.00991728
0.00992142
0.00992513
0.00992843
0.00993138
0.00993398
0.00993629
0.00993833
0.00994013
0.00994173
0.00994315
0.00994443
0.00994558
0.00994664
0.0099476
0.00994835
0.01
0.01
0.01
0.01
0.01
0.01
0.01
0.01
0.01
0.01
0.01
0.01
0.01
0.01
0.00999999
0.00999997
0.00999993
0.00999983
0.00999963
0.0099992
0.00999838
0.00999686
0.00999421
0.00998982
0.00998295
0.00997275
0.00995842
0.00993928
0.00991505
0.00988593
0.00985273
0.00981692
0.00978047
0.00974559
0.00971431
0.00968826
0.00966842
0.00965423
0.00964452
0.00963951
0.00963914
0.00964312
0.00965094
0.00966197
0.0096755
0.00969083
0.00970733
0.00972441
0.0097416
0.00975852
0.00977488
0.00979045
0.00980509
0.00981873
0.00983131
0.00984283
0.00985332
0.00986281
0.00987136
0.00987903
0.00988589
0.009892
0.00989742
0.00990223
0.00990648
0.00991024
0.00991356
0.0099165
0.0099191
0.00992141
0.00992348
0.00992536
0.00992707
0.00992862
0.00992983
0.01
0.01
0.01
0.01
0.01
0.01
0.01
0.01
0.01
0.01
0.01
0.01
0.01
0.00999999
0.00999998
0.00999994
0.00999985
0.00999966
0.00999924
0.00999839
0.00999675
0.00999377
0.00998861
0.00998017
0.00996713
0.00994803
0.00992154
0.00988667
0.00984309
0.00979137
0.00973315
0.00967122
0.00960919
0.00955094
0.00949989
0.00945842
0.00942778
0.00940698
0.00939434
0.00939014
0.00939418
0.00940579
0.00942386
0.0094471
0.00947412
0.00950363
0.00953448
0.00956569
0.00959648
0.00962625
0.00965459
0.0096812
0.00970592
0.00972867
0.00974945
0.0097683
0.0097853
0.00980058
0.00981424
0.00982642
0.00983724
0.00984683
0.00985532
0.00986282
0.00986943
0.00987526
0.00988039
0.00988493
0.00988894
0.0098925
0.00989569
0.00989858
0.0099012
0.00990357
0.00990542
0.01
0.01
0.01
0.01
0.01
0.01
0.01
0.01
0.01
0.01
0.01
0.01
0.00999999
0.00999998
0.00999995
0.00999988
0.0099997
0.00999932
0.00999851
0.00999687
0.00999373
0.00998806
0.00997839
0.00996278
0.00993898
0.00990464
0.00985771
0.00979684
0.00972181
0.00963389
0.00953613
0.00943346
0.0093322
0.00923903
0.00915938
0.00909623
0.0090507
0.0090213
0.00900598
0.00900521
0.00901863
0.0090448
0.00908147
0.00912607
0.00917604
0.00922908
0.00928325
0.00933698
0.00938908
0.00943871
0.0094853
0.00952853
0.00956823
0.00960441
0.00963714
0.00966659
0.00969296
0.00971648
0.00973738
0.0097559
0.00977227
0.00978672
0.00979946
0.00981066
0.00982052
0.00982918
0.0098368
0.00984351
0.00984944
0.00985471
0.00985941
0.00986365
0.0098675
0.00987096
0.00987366
0.01
0.01
0.01
0.01
0.01
0.01
0.01
0.01
0.01
0.01
0.01
0.00999999
0.00999999
0.00999996
0.0099999
0.00999976
0.00999944
0.00999871
0.00999718
0.00999411
0.00998831
0.00997795
0.00996048
0.0099327
0.00989097
0.00983174
0.0097521
0.00965045
0.00952699
0.00938411
0.00922692
0.00906368
0.00890498
0.00876197
0.00864319
0.00855119
0.00848586
0.00844528
0.0084279
0.00843494
0.00846592
0.00851789
0.00858631
0.00866626
0.00875316
0.00884314
0.00893313
0.0090208
0.00910449
0.00918312
0.00925604
0.00932296
0.00938383
0.0094388
0.00948814
0.0095322
0.00957139
0.00960613
0.00963683
0.0096639
0.00968772
0.00970866
0.00972704
0.00974317
0.00975732
0.00976972
0.00978061
0.00979019
0.00979863
0.00980611
0.00981279
0.00981879
0.00982423
0.00982911
0.00983292
0.01
0.01
0.01
0.01
0.01
0.01
0.01
0.01
0.01
0.01
0.01
0.00999999
0.00999997
0.00999993
0.00999982
0.00999956
0.00999896
0.00999763
0.00999484
0.00998932
0.00997897
0.00996071
0.00993034
0.00988278
0.00981253
0.00971454
0.00958516
0.00942293
0.00922898
0.00900715
0.00876502
0.00851565
0.00827597
0.00806414
0.00789466
0.00776639
0.00767536
0.00762006
0.00760174
0.00762353
0.00768526
0.0077809
0.00790117
0.00803686
0.00818014
0.00832494
0.00846683
0.00860269
0.00873052
0.0088491
0.00895789
0.00905677
0.00914595
0.00922588
0.00929713
0.00936037
0.00941631
0.00946563
0.00950901
0.00954711
0.00958051
0.00960977
0.00963538
0.00965779
0.00967739
0.00969455
0.00970959
0.00972279
0.00973441
0.00974469
0.00975385
0.00976208
0.00976952
0.00977618
0.00978137
0.01
0.01
0.01
0.01
0.01
0.01
0.01
0.01
0.01
0.01
0.00999999
0.00999998
0.00999995
0.00999988
0.00999969
0.00999922
0.00999815
0.0099958
0.00999091
0.0099813
0.0099635
0.00993246
0.00988162
0.0098033
0.0096897
0.00953427
0.00933306
0.0090857
0.00879505
0.00846621
0.00810835
0.00774102
0.0073903
0.00708313
0.00685101
0.00668065
0.00655856
0.00648548
0.00646918
0.00651659
0.00662933
0.0067965
0.00699837
0.00721783
0.00744229
0.00766338
0.00787561
0.0080755
0.00826106
0.00843133
0.00858608
0.00872562
0.00885062
0.00896196
0.00906068
0.00914787
0.00922464
0.00929206
0.00935115
0.00940287
0.00944808
0.00948757
0.00952205
0.00955216
0.00957845
0.00960143
0.00962153
0.00963916
0.00965466
0.00966835
0.00968054
0.00969147
0.00970134
0.00971016
0.00971702
0.01
0.01
0.01
0.01
0.01
0.01
0.01
0.01
0.01
0.01
0.00999999
0.00999997
0.00999992
0.00999979
0.00999946
0.00999866
0.00999682
0.00999281
0.00998453
0.00996838
0.00993881
0.00988796
0.00980596
0.00968188
0.00950537
0.00926876
0.00896902
0.00860855
0.00819338
0.00772829
0.00721897
0.00669435
0.00619464
0.00574225
0.00543963
0.00523213
0.00508412
0.00499954
0.00499311
0.0050777
0.00526164
0.00554561
0.00587251
0.00621102
0.00654404
0.00686315
0.00716356
0.00744244
0.00769846
0.00793131
0.00814143
0.00832977
0.00849761
0.00864644
0.00877787
0.00889354
0.00899504
0.00908391
0.0091616
0.00922942
0.00928857
0.00934015
0.0093851
0.00942429
0.00945847
0.0094883
0.00951437
0.00953721
0.00955728
0.00957499
0.00959074
0.00960484
0.00961757
0.00962892
0.00963774
0.01
0.01
0.01
0.01
0.01
0.01
0.01
0.01
0.01
0.00999999
0.00999998
0.00999995
0.00999987
0.00999965
0.0099991
0.00999777
0.00999473
0.00998811
0.00997454
0.00994833
0.0099009
0.00982051
0.00969307
0.00950385
0.00924009
0.00889399
0.00846532
0.00796225
0.00739697
0.00677091
0.00606768
0.00533251
0.00465414
0.00390033
0.00357789
0.00338244
0.00325346
0.00318869
0.0031986
0.00330321
0.00351348
0.0040368
0.00454947
0.00504424
0.00550834
0.00594244
0.00634534
0.00671539
0.00705228
0.00735669
0.00762997
0.00787387
0.00809044
0.00828188
0.00845047
0.00859845
0.00872801
0.00884122
0.00894
0.00902608
0.00910105
0.00916633
0.00922316
0.00927265
0.00931578
0.00935339
0.00938625
0.00941501
0.00944026
0.00946254
0.00948232
0.00950004
0.00951601
0.00953023
0.00954126
0.01
0.01
0.01
0.01
0.01
0.01
0.01
0.01
0.01
0.00999999
0.00999997
0.00999993
0.00999979
0.00999944
0.00999855
0.00999642
0.00999154
0.00998099
0.00995948
0.00991836
0.00984485
0.00972219
0.00953119
0.00925321
0.00887373
0.00838614
0.00779524
0.00711905
0.00638375
0.00558899
0.00463349
0.00356027
0.00285737
0.00101881
0.000216037
0.000167653
0.00015614
0.000150858
0.000151383
0.000169551
0.000579046
0.00237609
0.00305479
0.00374367
0.00434707
0.00491168
0.00543304
0.00590681
0.00633424
0.00671794
0.00706073
0.00736553
0.00763538
0.00787335
0.00808245
0.00826566
0.0084258
0.00856551
0.00868725
0.00879322
0.00888543
0.00896565
0.00903544
0.00909619
0.0091491
0.00919522
0.00923549
0.00927073
0.00930166
0.00932894
0.00935316
0.00937482
0.00939434
0.0094117
0.00942515
0.01
0.01
0.01
0.01
0.01
0.01
0.01
0.01
0.01
0.00999999
0.00999996
0.00999988
0.00999968
0.00999913
0.00999775
0.00999444
0.00998687
0.00997057
0.0099376
0.00987519
0.00976507
0.00958427
0.00930808
0.00891443
0.00838812
0.00772445
0.00693393
0.00604682
0.00512059
0.00420894
0.00292927
0.000434302
0.000187595
0.00063863
0.000161477
0.00012641
0.000117862
0.000113894
0.000114279
0.000127695
0.000408558
0.000206523
0.000223913
0.0022858
0.00299047
0.00374519
0.00442579
0.00502359
0.00555343
0.00602455
0.00644283
0.00681312
0.00713987
0.00742725
0.00767922
0.00789957
0.00809186
0.00825941
0.00840524
0.00853207
0.00864236
0.00873826
0.00882166
0.00889423
0.00895742
0.00901251
0.00906059
0.00910266
0.00913958
0.00917213
0.00920102
0.00922685
0.00925011
0.00927077
0.00928675
0.01
0.01
0.01
0.01
0.01
0.01
0.01
0.01
0.00999999
0.00999998
0.00999994
0.00999983
0.00999952
0.0099987
0.00999662
0.00999163
0.00998026
0.00995589
0.00990695
0.00981527
0.00965566
0.00939805
0.00901245
0.00847489
0.00777067
0.00689532
0.00586002
0.00469609
0.00348062
0.00275287
0.000235398
0.000319405
0.000101833
7.27904e-07
2.32581e-07
2.13341e-07
2.02907e-07
1.96996e-07
1.95958e-07
2.02589e-07
4.10333e-07
8.40911e-05
0.00017409
0.000319332
0.00111107
0.00241771
0.00333469
0.00406965
0.00471336
0.00528185
0.00578288
0.00622376
0.00661093
0.00695012
0.00724657
0.00750514
0.00773031
0.00792618
0.00809643
0.00824437
0.00837292
0.00848465
0.0085818
0.00866632
0.00873991
0.00880405
0.00886005
0.00890903
0.00895202
0.0089899
0.00902351
0.00905356
0.00908061
0.00910461
0.00912312
0.01
0.01
0.01
0.01
0.01
0.01
0.01
0.01
0.00999999
0.00999997
0.00999992
0.00999975
0.0099993
0.00999811
0.00999508
0.00998779
0.00997125
0.00993596
0.00986558
0.00973509
0.00951107
0.00915593
0.00863576
0.00792771
0.00701909
0.00589873
0.00456385
0.0030219
0.000385126
0.000293759
0.000169729
2.98984e-07
2.34131e-08
1.93335e-10
1.42037e-10
1.34783e-10
1.29553e-10
1.262e-10
1.25068e-10
1.26855e-10
1.54372e-10
1.4968e-08
1.62518e-07
5.07909e-05
0.000629648
0.000165087
0.00221247
0.00301427
0.0037987
0.00448631
0.00508288
0.00560204
0.00605427
0.00644791
0.00679016
0.00708741
0.00734539
0.00756923
0.00776343
0.00793195
0.00807826
0.00820535
0.00831582
0.00841192
0.00849558
0.00856851
0.00863216
0.00868784
0.0087367
0.00877975
0.00881793
0.00885206
0.00888276
0.00890999
0.00893095
0.01
0.01
0.01
0.01
0.01
0.01
0.01
0.01
0.00999999
0.00999996
0.00999988
0.00999965
0.00999902
0.00999733
0.00999305
0.00998275
0.00995943
0.00990987
0.00981176
0.00963172
0.00932693
0.00885249
0.00817347
0.00727377
0.00614638
0.00475643
0.00304177
0.000216188
0.000277268
5.75376e-05
4.21108e-08
1.27389e-10
3.29826e-12
7.16602e-14
6.40074e-14
6.09307e-14
5.8528e-14
5.69007e-14
5.62157e-14
5.6709e-14
6.09764e-14
1.90162e-12
8.87876e-11
5.36114e-09
8.28695e-07
0.000122933
0.000552358
0.00162923
0.00278012
0.00363283
0.00434315
0.00495138
0.00547503
0.00592634
0.00631549
0.00665126
0.00694119
0.00719179
0.00740862
0.00759642
0.00775925
0.00790058
0.00802336
0.00813014
0.00822309
0.0083041
0.00837481
0.00843665
0.00849091
0.00853871
0.0085811
0.00861899
0.00865307
0.00868328
0.00870649
0.01
0.01
0.01
0.01
0.01
0.01
0.01
0.00999999
0.00999998
0.00999995
0.00999984
0.00999953
0.00999867
0.00999635
0.00999049
0.00997639
0.0099445
0.00987704
0.00974441
0.00950338
0.00910083
0.00848538
0.00762518
0.00652048
0.00518657
0.00354817
0.000351859
0.000256545
4.58813e-07
5.68966e-09
5.34901e-12
5.19696e-14
4.25081e-16
2.40581e-17
2.2392e-17
2.12723e-17
2.03749e-17
1.97487e-17
1.94537e-17
1.95671e-17
2.04425e-17
2.53511e-16
3.87789e-14
8.81376e-13
3.99794e-10
1.87536e-07
8.36417e-05
0.00012225
0.00180522
0.00273714
0.00356665
0.00427722
0.00488038
0.00539261
0.00582895
0.00620192
0.00652175
0.00679679
0.00703392
0.0072388
0.00741614
0.0075699
0.0077034
0.00781945
0.00792045
0.00800846
0.00808528
0.00815247
0.00821142
0.00826336
0.00830943
0.00835063
0.0083877
0.00842056
0.00844576
0.01
0.01
0.01
0.01
0.01
0.01
0.01
0.00999999
0.00999998
0.00999993
0.00999979
0.00999938
0.00999824
0.00999517
0.00998738
0.00996866
0.00992641
0.00983739
0.00966344
0.0093502
0.00883342
0.00805599
0.00699234
0.00566911
0.00417743
0.0027044
0.00037105
3.46562e-05
2.85002e-09
9.90358e-13
8.62099e-16
1.80041e-17
6.87816e-20
6.86445e-21
6.42916e-21
6.0894e-21
5.81362e-21
5.61711e-21
5.51715e-21
5.53546e-21
5.7454e-21
4.65407e-20
1.34162e-17
3.23904e-16
3.07575e-13
2.97941e-10
2.69237e-07
0.000116015
0.000152204
0.00170922
0.00274828
0.00359355
0.00428503
0.00485848
0.0053392
0.00574551
0.00609117
0.00638678
0.00664064
0.0068594
0.00704843
0.00721213
0.00735417
0.00747761
0.00758504
0.00767867
0.00776042
0.00783194
0.00789473
0.00795012
0.00799929
0.00804333
0.00808301
0.00811822
0.0081452
0.01
0.01
0.01
0.01
0.01
0.01
0.01
0.00999999
0.00999997
0.00999991
0.00999974
0.00999921
0.00999775
0.00999381
0.00998378
0.0099597
0.00990544
0.00979156
0.00957032
0.00917511
0.00852988
0.0075715
0.00627823
0.00468498
0.00289143
0.000256307
0.000168128
2.76136e-08
3.11845e-12
6.53094e-16
3.24598e-19
5.26937e-21
1.44929e-23
1.68722e-24
1.57716e-24
1.48929e-24
1.41735e-24
1.36519e-24
1.33699e-24
1.33799e-24
1.38638e-24
1.05231e-23
3.83967e-21
1.55657e-19
2.32925e-16
3.589e-13
4.80071e-10
4.65982e-07
0.000146035
0.000215014
0.00196651
0.00294938
0.0037172
0.00434115
0.00485707
0.00528885
0.0056536
0.00596398
0.00622963
0.00645804
0.00665513
0.0068257
0.00697367
0.0071023
0.0072143
0.00731201
0.00739743
0.00747229
0.00753814
0.00759638
0.00764824
0.00769483
0.00773695
0.00777439
0.0078031
0.01
0.01
0.01
0.01
0.01
0.01
0.01
0.00999999
0.00999997
0.0099999
0.00999968
0.00999903
0.0099972
0.0099923
0.0099798
0.00994979
0.00988231
0.00974119
0.00946851
0.00898491
0.00820231
0.00705139
0.00551264
0.00360077
0.000330079
0.000252243
2.44243e-07
1.16377e-10
4.96746e-14
1.74047e-17
5.09587e-21
2.56451e-24
3.51802e-27
3.65165e-28
3.40054e-28
3.20197e-28
3.03818e-28
2.91755e-28
2.84891e-28
2.84328e-28
2.94305e-28
2.43657e-27
1.27153e-24
1.51595e-21
5.69566e-18
1.79582e-14
4.37223e-11
7.05322e-08
4.32143e-05
6.41076e-05
0.00144023
0.00239495
0.00320126
0.00385617
0.00439282
0.0048386
0.00521319
0.00553084
0.00580213
0.00603513
0.00623612
0.00641014
0.00656124
0.00669279
0.00680759
0.006908
0.00699607
0.00707356
0.00714205
0.00720294
0.00725748
0.00730677
0.00735157
0.00739156
0.00742223
0.01
0.01
0.01
0.01
0.01
0.01
0.01
0.00999999
0.00999996
0.00999988
0.00999961
0.00999883
0.00999663
0.00999072
0.00997563
0.00993944
0.00985824
0.00968902
0.00936377
0.00879091
0.00787115
0.0065297
0.00476367
0.00275161
0.000205422
9.57166e-05
1.74875e-08
2.19502e-12
2.90572e-16
5.48653e-20
1.29085e-23
3.28749e-27
1.32303e-30
7.09949e-32
6.57615e-32
6.17577e-32
5.84333e-32
5.59495e-32
5.44728e-32
5.42089e-32
5.60537e-32
6.2552e-31
8.80208e-28
3.0599e-24
1.19554e-20
3.93597e-17
1.03438e-13
1.99232e-10
2.46572e-07
0.000106573
0.000146167
0.00187753
0.00274811
0.00341728
0.00395694
0.00440251
0.00477593
0.00509227
0.00536244
0.00559467
0.00579535
0.0059695
0.00612121
0.00625381
0.00637008
0.00647236
0.00656265
0.00664271
0.00671406
0.00677805
0.00683591
0.00688867
0.00693699
0.00698034
0.00701363
0.01
0.01
0.01
0.01
0.01
0.01
0.01
0.00999999
0.00999996
0.00999986
0.00999955
0.00999864
0.00999608
0.00998917
0.00997156
0.00992935
0.00983487
0.00963875
0.00926392
0.00860859
0.00756452
0.00604385
0.003973
0.000820309
0.000537012
6.04781e-07
1.8988e-10
7.38447e-14
2.50195e-17
7.12051e-21
1.73839e-24
3.73056e-28
7.18673e-32
2.50739e-35
1.15789e-35
1.08451e-35
1.02338e-35
9.77105e-36
9.48524e-36
9.41137e-36
1.1161e-35
9.30475e-33
5.3695e-29
2.82936e-25
1.32494e-21
5.35623e-18
1.78944e-14
4.59369e-11
7.8726e-08
5.34018e-05
7.74161e-05
0.00166815
0.00242275
0.00304805
0.00356346
0.00399242
0.00435339
0.00466011
0.00492291
0.00514967
0.00534651
0.00551827
0.00566887
0.00580148
0.00591877
0.00602293
0.00611588
0.00619923
0.00627441
0.00634267
0.00640513
0.00646269
0.00651585
0.00656378
0.00660062
0.01
0.01
0.01
0.01
0.01
0.01
0.01
0.00999999
0.00999995
0.00999984
0.00999949
0.00999847
0.00999558
0.00998778
0.00996791
0.00992035
0.00981417
0.0095947
0.00917795
0.00845629
0.00732319
0.00571328
0.00363565
0.000223908
0.000167186
2.51198e-07
1.49663e-10
6.67494e-14
2.31746e-17
6.60362e-21
1.60675e-24
3.43405e-28
6.58066e-32
1.14817e-35
3.72011e-39
1.75363e-39
1.65026e-39
1.57128e-39
1.52089e-39
1.66131e-39
1.09249e-36
7.03494e-33
4.16657e-29
2.23663e-25
1.06792e-21
4.41174e-18
1.51101e-14
3.99574e-11
7.11172e-08
5.23264e-05
7.82708e-05
0.00149863
0.00217159
0.00274391
0.00322363
0.00362663
0.00396788
0.00425948
0.00451084
0.00472922
0.0049203
0.00508856
0.00523758
0.00537029
0.00548908
0.00559596
0.00569263
0.00578053
0.00586092
0.00593489
0.00600337
0.00606711
0.00612641
0.00618005
0.00622126
0.01
0.01
0.01
0.01
0.01
0.01
0.01
0.00999998
0.00999995
0.00999982
0.00999945
0.00999834
0.00999518
0.00998669
0.00996505
0.00991333
0.00979817
0.00956113
0.00911381
0.00834648
0.00715916
0.00551129
0.00346414
0.000181885
0.000136878
2.31482e-07
1.42741e-10
6.392e-14
2.21643e-17
6.30178e-21
1.52993e-24
3.26344e-28
6.243e-32
1.08745e-35
1.74487e-39
5.23278e-43
2.47152e-43
2.34655e-43
2.43068e-43
1.2523e-40
8.79481e-37
5.73929e-33
3.44093e-29
1.87073e-25
9.05387e-22
3.79602e-18
1.32191e-14
3.56325e-11
6.48511e-08
4.96646e-05
7.60652e-05
0.00137814
0.00199061
0.0025169
0.00296177
0.00333792
0.00365837
0.00393407
0.0041736
0.00438362
0.00456927
0.00473461
0.00488284
0.00501652
0.00513778
0.00524835
0.00534968
0.00544301
0.00552938
0.00560972
0.00568478
0.00575513
0.00582084
0.00588039
0.00592607
0.01
0.01
0.01
0.01
0.01
0.01
0.01
0.00999998
0.00999994
0.00999982
0.00999942
0.00999825
0.00999494
0.00998602
0.00996332
0.00990916
0.00978882
0.00954186
0.00907788
0.00828704
0.00707473
0.00541503
0.00339141
0.000173719
0.000130927
2.24511e-07
1.39648e-10
6.25708e-14
2.16742e-17
6.15449e-21
1.49233e-24
3.17971e-28
6.07691e-32
1.05762e-35
1.69546e-39
2.52613e-43
6.98077e-47
3.45609e-47
1.44945e-44
1.09742e-40
7.77872e-37
5.11368e-33
3.08841e-29
1.69162e-25
8.25087e-22
3.48845e-18
1.22623e-14
3.3413e-11
6.1597e-08
4.82541e-05
7.49442e-05
0.00131455
0.00189329
0.00239137
0.00281352
0.00317166
0.00347814
0.00374333
0.00397534
0.00418039
0.00436325
0.00452761
0.00467636
0.00481181
0.00493582
0.00504992
0.00515539
0.00525328
0.00534451
0.00542985
0.00550995
0.00558525
0.00565569
0.0057195
0.00576839
0.01
0.01
0.01
0.01
0.01
0.01
0.01
0.00999998
0.00999994
0.00999981
0.00999942
0.00999824
0.00999491
0.00998594
0.00996314
0.00990879
0.00978814
0.00954079
0.00907645
0.00828554
0.00707368
0.00541486
0.00339189
0.000173701
0.000130913
2.24409e-07
1.39568e-10
6.25265e-14
2.16561e-17
6.14864e-21
1.49075e-24
3.17602e-28
6.06927e-32
1.05619e-35
1.69304e-39
2.52234e-43
6.87571e-47
3.36135e-47
1.44812e-44
1.09661e-40
7.7738e-37
5.11095e-33
3.08704e-29
1.69101e-25
8.24852e-22
3.48769e-18
1.22604e-14
3.34094e-11
6.15939e-08
4.82595e-05
7.49541e-05
0.00131471
0.00189355
0.00239184
0.00281436
0.00317305
0.00348025
0.00374631
0.00397931
0.00418543
0.00436942
0.00453493
0.00468485
0.00482146
0.00494661
0.00506182
0.00516835
0.00526726
0.00535945
0.00544569
0.00552664
0.00560272
0.00567389
0.00573835
0.00578774
0.01
0.01
0.01
0.01
0.01
0.01
0.01
0.00999998
0.00999994
0.00999982
0.00999943
0.00999829
0.00999506
0.00998638
0.00996436
0.00991188
0.00979542
0.00955648
0.00910705
0.00833839
0.00715187
0.00550748
0.00346446
0.000181761
0.000136785
2.31049e-07
1.42448e-10
6.37645e-14
2.21019e-17
6.28184e-21
1.52459e-24
3.25102e-28
6.21744e-32
1.08271e-35
1.73684e-39
5.14789e-43
2.40313e-43
2.28154e-43
2.36783e-43
1.24944e-40
8.77787e-37
5.72995e-33
3.4363e-29
1.86869e-25
9.04614e-22
3.79358e-18
1.32131e-14
3.56224e-11
6.48443e-08
4.96815e-05
7.60939e-05
0.00137868
0.00199144
0.00251823
0.00296394
0.00334134
0.00366344
0.00394113
0.00418295
0.00439548
0.00458384
0.00475199
0.00490311
0.00503972
0.0051639
0.00527735
0.00538151
0.00547758
0.00556659
0.00564945
0.00572691
0.00579952
0.00586735
0.00592881
0.00597597
0.01
0.01
0.01
0.01
0.01
0.01
0.01
0.00999998
0.00999995
0.00999983
0.00999947
0.0099984
0.00999538
0.00998728
0.00996674
0.00991787
0.00980937
0.00958642
0.00916554
0.00844076
0.00730826
0.00570466
0.00363643
0.000225833