/*--------------------------------*- C++ -*----------------------------------*\
  =========                 |
  \\      /  F ield         | OpenFOAM: The Open Source CFD Toolbox
   \\    /   O peration     | Website:  https://openfoam.org
    \\  /    A nd           | Version:  7
     \\/     M anipulation  |
\*---------------------------------------------------------------------------*/
FoamFile
{
    version     2.0;
    format      ascii;
    class       volScalarField;
    location    "5";
    object      p;
}
// * * * * * * * * * * * * * * * * * * * * * * * * * * * * * * * * * * * * * //

dimensions      [0 2 -2 0 0 0 0];

internalField   nonuniform List<scalar> 
5625
(
0.00132236
0.000879398
0.0006671
0.000581011
0.000536021
0.000509201
0.000492445
0.000481198
0.000473031
0.000466679
0.000461421
0.000456806
0.000452536
0.000448401
0.000444249
0.000439961
0.000435445
0.000430627
0.000425444
0.000419844
0.000413784
0.000407226
0.000400141
0.000392506
0.000384305
0.000375529
0.000366177
0.000356256
0.000345784
0.000334785
0.000323292
0.00031135
0.000299009
0.000286327
0.000273371
0.00026021
0.000246918
0.000233572
0.000220248
0.000207023
0.000193969
0.000181156
0.000168649
0.000156505
0.000144775
0.000133501
0.000122717
0.00011245
0.000102715
9.35233e-05
8.48761e-05
7.67689e-05
6.91912e-05
6.21273e-05
5.55573e-05
4.94578e-05
4.38024e-05
3.85631e-05
3.37101e-05
2.92131e-05
2.50411e-05
2.11639e-05
1.75518e-05
1.41767e-05
1.10122e-05
8.03511e-06
5.22631e-06
2.57269e-06
6.97597e-08
-2.27166e-06
-4.40406e-06
-6.22446e-06
-7.67437e-06
-8.56968e-06
-5.74413e-06
0.000972585
0.000795014
0.000675871
0.000606261
0.000560363
0.000529198
0.000507873
0.000492754
0.000481529
0.000472796
0.000465673
0.000459575
0.000454106
0.000448989
0.00044402
0.000439049
0.000433958
0.000428654
0.000423065
0.000417128
0.000410794
0.000404023
0.000396783
0.00038905
0.000380805
0.000372041
0.000362756
0.000352956
0.000342657
0.00033188
0.000320658
0.00030903
0.000297042
0.000284747
0.000272204
0.000259476
0.000246631
0.000233738
0.000220864
0.00020808
0.000195452
0.000183043
0.000170911
0.00015911
0.000147686
0.000136679
0.000126121
0.000116037
0.000106445
9.73552e-05
8.87714e-05
8.06913e-05
7.31074e-05
6.60073e-05
5.93745e-05
5.31891e-05
4.74289e-05
4.20693e-05
3.70844e-05
3.24476e-05
2.8132e-05
2.41109e-05
2.03588e-05
1.68514e-05
1.35672e-05
1.04878e-05
7.59985e-06
4.89706e-06
2.38255e-06
7.37246e-08
-1.97429e-06
-3.64811e-06
-4.97393e-06
-6.23804e-06
-4.80484e-06
0.000763428
0.000707627
0.000648466
0.00060031
0.000563041
0.000535003
0.000514107
0.000498323
0.000486097
0.000476329
0.000468246
0.000461297
0.000455088
0.00044933
0.000443809
0.000438363
0.000432864
0.000427212
0.000421329
0.000415147
0.000408615
0.00040169
0.000394339
0.000386536
0.000378263
0.000369511
0.000360278
0.000350569
0.000340397
0.000329785
0.000318761
0.000307361
0.000295628
0.000283612
0.000271367
0.000258952
0.000246429
0.000233862
0.000221314
0.00020885
0.000196531
0.000184416
0.00017256
0.000161012
0.000149816
0.000139011
0.000128626
0.000118686
0.000109209
0.000100205
9.16797e-05
8.36317e-05
7.60554e-05
6.89407e-05
6.22732e-05
5.6036e-05
5.0209e-05
4.47706e-05
3.96975e-05
3.49658e-05
3.05514e-05
2.64304e-05
2.25798e-05
1.89784e-05
1.56072e-05
1.24506e-05
9.49782e-06
6.74452e-06
4.19403e-06
1.85936e-06
-2.13987e-07
-1.92573e-06
-3.38736e-06
-5.20976e-06
-4.76918e-06
0.000654486
0.000640897
0.000611746
0.000580867
0.000553908
0.000531653
0.000513664
0.000499171
0.000487379
0.000477605
0.000469298
0.000462031
0.000455474
0.000449371
0.000443526
0.000437782
0.000432018
0.000426134
0.000420049
0.0004137
0.000407031
0.0004
0.000392574
0.000384725
0.000376437
0.000367698
0.000358506
0.000348866
0.00033879
0.000328297
0.000317416
0.00030618
0.000294629
0.000282812
0.000270778
0.000258584
0.000246289
0.000233953
0.000221637
0.000209401
0.000197304
0.000185401
0.000173746
0.000162385
0.00015136
0.000140708
0.000130457
0.000120632
0.000111249
0.000102321
9.38505e-05
8.58392e-05
7.8282e-05
7.11699e-05
6.44902e-05
5.82273e-05
5.23631e-05
4.68777e-05
4.17498e-05
3.69573e-05
3.2478e-05
2.82899e-05
2.43718e-05
2.07041e-05
1.72692e-05
1.40525e-05
1.10432e-05
8.23604e-06
5.63048e-06
3.23077e-06
1.06842e-06
-7.74394e-07
-2.47289e-06
-4.81834e-06
-4.97853e-06
0.000590036
0.000591835
0.000578713
0.000559999
0.000541467
0.000524666
0.000509998
0.000497428
0.000486685
0.000477423
0.000469309
0.000462048
0.000455394
0.000449142
0.000443124
0.000437205
0.000431271
0.000425231
0.000419009
0.000412542
0.000405777
0.000398673
0.000391195
0.000383319
0.000375024
0.000366301
0.000357147
0.000347564
0.000337565
0.000327167
0.000316396
0.000305286
0.000293875
0.000282208
0.000270334
0.000258308
0.000246185
0.000234023
0.000221883
0.00020982
0.000197894
0.000186156
0.000174658
0.000163445
0.000152558
0.000142031
0.000131894
0.000122168
0.00011287
0.000104012
9.55978e-05
8.76282e-05
8.00988e-05
7.30015e-05
6.63243e-05
6.0053e-05
5.41703e-05
4.8658e-05
4.34958e-05
3.86634e-05
3.41397e-05
2.99041e-05
2.59366e-05
2.22185e-05
1.8733e-05
1.54654e-05
1.24041e-05
9.54145e-06
6.87237e-06
4.39266e-06
2.12189e-06
1.28402e-07
-1.8072e-06
-4.5867e-06
-5.16756e-06
0.000548637
0.000555828
0.000551283
0.000540578
0.000528303
0.00051604
0.000504499
0.000493998
0.000484575
0.000476122
0.000468475
0.000461459
0.000454908
0.00044867
0.000442615
0.000436629
0.000430617
0.000424497
0.000418198
0.000411664
0.000404845
0.000397699
0.000390195
0.000382308
0.000374018
0.000365314
0.000356192
0.000346656
0.000336715
0.000326387
0.000315697
0.000304675
0.000293361
0.000281797
0.000270032
0.000258118
0.000246112
0.00023407
0.000222049
0.000210107
0.0001983
0.000186679
0.000175295
0.000164192
0.000153409
0.000142981
0.000132935
0.000123293
0.00011407
0.000105277
9.69191e-05
8.89955e-05
8.15021e-05
7.44309e-05
6.77705e-05
6.15069e-05
5.5624e-05
5.01038e-05
4.49274e-05
4.0075e-05
3.55267e-05
3.12625e-05
2.72634e-05
2.35111e-05
1.99886e-05
1.66809e-05
1.35751e-05
1.06608e-05
7.92852e-06
5.36693e-06
2.98679e-06
8.47307e-07
-1.29949e-06
-4.42503e-06
-5.31353e-06
0.000520673
0.000529253
0.000529099
0.000523445
0.000515622
0.000506933
0.000498102
0.000489571
0.000481534
0.000474029
0.000467013
0.000460404
0.000454104
0.000448012
0.000442033
0.000436078
0.00043007
0.000423938
0.000417622
0.00041107
0.000404236
0.000397082
0.000389577
0.000381696
0.000373421
0.00036474
0.000355648
0.000346148
0.000336248
0.000325965
0.000315323
0.000304352
0.00029309
0.00028158
0.000269871
0.000258016
0.00024607
0.000234089
0.000222132
0.000210255
0.000198514
0.000186961
0.000175646
0.000164614
0.000153902
0.000143545
0.000133568
0.000123994
0.000114836
0.000106105
9.78023e-05
8.9929e-05
8.24797e-05
7.54461e-05
6.88165e-05
6.2577e-05
5.67116e-05
5.12027e-05
4.60317e-05
4.11795e-05
3.66264e-05
3.23531e-05
2.83406e-05
2.45708e-05
2.10264e-05
1.76917e-05
1.4552e-05
1.15947e-05
8.80641e-06
6.17031e-06
3.69093e-06
1.42207e-06
-9.01286e-07
-4.29217e-06
-5.40835e-06
0.000500807
0.000509339
0.000511385
0.00050886
0.000504121
0.000498137
0.000491526
0.000484733
0.000478009
0.000471474
0.000465159
0.000459048
0.000453096
0.000447243
0.000441426
0.00043558
0.000429644
0.000423562
0.000417281
0.000410756
0.000403945
0.000396813
0.000389331
0.000381475
0.000373226
0.000364572
0.000355507
0.000346032
0.000336156
0.000325894
0.000315269
0.000304311
0.000293059
0.000281555
0.000269851
0.000257999
0.000246056
0.000234079
0.000222129
0.000210262
0.000198535
0.000187001
0.000175712
0.000164711
0.000154037
0.000143724
0.000133797
0.000124276
0.000115174
0.000106499
9.82534e-05
9.04353e-05
8.30388e-05
7.60542e-05
6.94696e-05
6.32703e-05
5.74401e-05
5.19612e-05
4.68152e-05
4.19826e-05
3.74443e-05
3.31807e-05
2.91731e-05
2.5403e-05
2.18528e-05
1.85055e-05
1.53455e-05
1.23576e-05
9.52573e-06
6.82906e-06
4.26803e-06
1.89324e-06
-5.69014e-07
-4.15282e-06
-5.44105e-06
0.000486111
0.000494168
0.000497298
0.000496703
0.000494071
0.000490083
0.000485227
0.000479895
0.000474347
0.000468731
0.000463122
0.000457547
0.000451996
0.000446444
0.000440851
0.000435174
0.000429366
0.000423384
0.000417183
0.000410724
0.000403971
0.000396891
0.000389455
0.000381641
0.000373429
0.000364807
0.000355767
0.00034631
0.000336442
0.000326177
0.000315539
0.000304557
0.00029327
0.000281723
0.000269969
0.000258065
0.000246067
0.000234038
0.000222037
0.000210123
0.000198357
0.000186794
0.000175485
0.000164477
0.000153809
0.000143514
0.000133617
0.000124136
0.000115082
0.000106462
9.82748e-05
9.05181e-05
8.31836e-05
7.62606e-05
6.97355e-05
6.3593e-05
5.78157e-05
5.23856e-05
4.72837e-05
4.24904e-05
3.79861e-05
3.37515e-05
2.97672e-05
2.60145e-05
2.24753e-05
1.91317e-05
1.59668e-05
1.29639e-05
1.01045e-05
7.36546e-06
4.74449e-06
2.29018e-06
-2.73686e-07
-3.98533e-06
-5.40499e-06
0.000474972
0.000482475
0.000486113
0.000486704
0.000485498
0.000482963
0.000479464
0.000475329
0.000470792
0.000466009
0.000461074
0.000456035
0.000450909
0.000445692
0.000440365
0.0004349
0.000429264
0.000423423
0.000417342
0.000410986
0.000404322
0.00039732
0.000389953
0.000382198
0.000374036
0.000365452
0.000356437
0.00034699
0.000337115
0.000326825
0.000316142
0.000305097
0.00029373
0.00028209
0.000270232
0.000258216
0.000246105
0.000233962
0.00022185
0.000209833
0.000197972
0.000186328
0.000174954
0.0001639
0.000153206
0.000142904
0.000133019
0.000123566
0.000114554
0.000105988
9.78636e-05
9.01758e-05
8.29145e-05
7.60665e-05
6.96167e-05
6.3548e-05
5.78422e-05
5.24801e-05
4.74419e-05
4.27076e-05
3.82572e-05
3.40708e-05
3.01287e-05
2.64118e-05
2.29014e-05
1.95789e-05
1.64264e-05
1.3426e-05
1.05577e-05
7.79696e-06
5.13977e-06
2.63309e-06
3.13764e-09
-3.77716e-06
-5.29691e-06
0.000466454
0.000473426
0.000477262
0.000478574
0.000478328
0.00047684
0.000474377
0.000471201
0.000467516
0.000463465
0.000459147
0.000454623
0.000449923
0.000445057
0.000440021
0.000434799
0.000429369
0.000423704
0.000417775
0.000411553
0.000405007
0.00039811
0.000390835
0.000383158
0.000375058
0.000366519
0.000357531
0.000348088
0.000338192
0.000327855
0.000317097
0.000305949
0.000294455
0.000282666
0.000270644
0.000258455
0.000246168
0.000233848
0.000221564
0.000209381
0.000197367
0.000185587
0.000174101
0.000162961
0.000152209
0.000141876
0.000131986
0.000122551
0.000113579
0.000105068
9.70127e-05
8.94042e-05
8.22288e-05
7.54713e-05
6.91138e-05
6.31375e-05
5.75225e-05
5.22484e-05
4.72943e-05
4.26393e-05
3.82628e-05
3.41444e-05
3.0264e-05
2.66019e-05
2.31389e-05
1.9856e-05
1.67343e-05
1.37553e-05
1.08982e-05
8.13769e-06
5.46874e-06
2.93652e-06
2.73916e-07
-3.52056e-06
-5.11509e-06
0.000459974
0.000466456
0.000470319
0.000472056
0.000472448
0.000471707
0.000470026
0.000467609
0.000464626
0.000461206
0.000457443
0.000453398
0.00044911
0.000444599
0.000439867
0.000434909
0.00042971
0.000424248
0.000418501
0.000412441
0.000406041
0.000399275
0.000392114
0.000384534
0.000376512
0.00036803
0.000359072
0.000349629
0.000339702
0.000329296
0.000318431
0.000307139
0.000295465
0.000283467
0.000271217
0.000258789
0.000246257
0.000233695
0.000221171
0.000208757
0.000196526
0.000184551
0.000172902
0.000161633
0.00015079
0.000140404
0.000130495
0.000121073
0.000112139
0.000103689
9.57123e-05
8.81957e-05
8.11222e-05
7.44725e-05
6.82266e-05
6.23628e-05
5.68594e-05
5.16942e-05
4.68453e-05
4.22906e-05
3.80088e-05
3.39787e-05
3.01798e-05
2.65921e-05
2.31958e-05
1.99715e-05
1.69e-05
1.39622e-05
1.11371e-05
8.39922e-06
5.74291e-06
3.2111e-06
5.47159e-07
-3.2109e-06
-4.85928e-06
0.000455145
0.000461171
0.000464959
0.000466929
0.000467734
0.00046752
0.000466421
0.000464598
0.000462189
0.000459305
0.00045603
0.000452425
0.000448529
0.000444365
0.000439944
0.000435263
0.000430314
0.000425079
0.000419538
0.000413667
0.00040744
0.000400829
0.000393807
0.000386346
0.000378421
0.000370008
0.000361088
0.000351647
0.000341679
0.000331185
0.000320182
0.0003087
0.000296789
0.000284516
0.000271964
0.000259223
0.000246376
0.000233499
0.000220665
0.000207947
0.000195427
0.000183192
0.000171322
0.000159881
0.000148916
0.000138455
0.000128516
0.000119103
0.000110213
0.000101833
9.39487e-05
8.65409e-05
7.95878e-05
7.30667e-05
6.69536e-05
6.12245e-05
5.5855e-05
5.08212e-05
4.60995e-05
4.1667e-05
3.75011e-05
3.35803e-05
2.98834e-05
2.639e-05
2.30801e-05
1.9934e-05
1.69323e-05
1.4056e-05
1.12839e-05
8.59094e-06
5.97116e-06
3.46456e-06
8.28575e-07
-2.84584e-06
-4.53011e-06
0.000451698
0.000457289
0.000460934
0.000463006
0.000464066
0.000464214
0.000463544
0.000462181
0.000460237
0.000457804
0.000454956
0.000451749
0.00044822
0.000444394
0.000440282
0.000435888
0.000431203
0.000426214
0.000420903
0.000415247
0.000409219
0.000402791
0.000395934
0.000388618
0.000380811
0.000372487
0.000363618
0.000354184
0.000344171
0.000333573
0.000322399
0.000310679
0.000298466
0.000285838
0.000272901
0.000259764
0.000246525
0.00023326
0.000220039
0.000206936
0.000194044
0.000181473
0.00016932
0.000157659
0.00014654
0.000135987
0.000126012
0.000116612
0.000107773
9.9479e-05
9.17056e-05
8.44274e-05
7.76179e-05
7.12489e-05
6.52932e-05
5.97229e-05
5.45116e-05
4.9633e-05
4.5062e-05
4.07742e-05
3.67465e-05
3.29563e-05
2.93823e-05
2.60035e-05
2.27999e-05
1.97517e-05
1.68398e-05
1.4045e-05
1.13466e-05
8.72061e-06
6.16037e-06
3.7025e-06
1.12176e-06
-2.42488e-06
-4.12954e-06
0.00044943
0.000454595
0.000458051
0.000460133
0.000461334
0.000461721
0.000461361
0.00046035
0.000458779
0.000456724
0.000454247
0.000451398
0.000448211
0.000444709
0.000440906
0.000436803
0.000432395
0.000427671
0.000422612
0.000417196
0.000411395
0.00040518
0.000398518
0.000391374
0.000383714
0.000375503
0.000366706
0.000357293
0.000347238
0.000336525
0.000325151
0.00031314
0.000300547
0.00028747
0.000274042
0.000260417
0.000246705
0.000232977
0.000219291
0.000205712
0.000192347
0.000179345
0.000166836
0.000154907
0.000143603
0.000132946
0.000122935
0.000113558
0.000104789
9.6602e-05
8.89639e-05
8.18422e-05
7.52031e-05
6.90142e-05
6.3243e-05
5.78589e-05
5.2832e-05
4.81341e-05
4.37383e-05
3.9619e-05
3.57521e-05
3.21145e-05
2.86843e-05
2.54407e-05
2.23634e-05
1.94329e-05
1.66303e-05
1.39369e-05
1.13327e-05
8.79462e-06
6.31591e-06
3.92884e-06
1.42881e-06
-1.94895e-06
-3.66018e-06
0.000448184
0.000452922
0.000456153
0.000458179
0.000459435
0.000459969
0.000459826
0.000459082
0.000457808
0.000456069
0.000453914
0.000451387
0.000448518
0.000445328
0.000441829
0.000438022
0.000433904
0.000429461
0.000424677
0.000419526
0.000413982
0.000408012
0.000401578
0.000394643
0.000387165
0.000379101
0.000370406
0.000361037
0.000350956
0.000340126
0.000328527
0.000316166
0.000303103
0.000289451
0.000275401
0.000261177
0.000246912
0.000232656
0.000218427
0.000204266
0.000190297
0.000176744
0.000163794
0.000151543
0.000140031
0.000129266
0.00011923
0.000109895
0.000101224
9.31736e-05
8.57032e-05
7.87703e-05
7.23347e-05
6.63574e-05
6.0802e-05
5.56335e-05
5.08196e-05
4.63295e-05
4.21348e-05
3.82086e-05
3.4526e-05
3.10632e-05
2.77983e-05
2.47102e-05
2.17791e-05
1.89858e-05
1.63117e-05
1.37389e-05
1.12484e-05
8.81846e-06
6.44195e-06
4.14633e-06
1.75048e-06
-1.42024e-06
-3.12588e-06
0.00044783
0.000452134
0.00045511
0.000457029
0.000458277
0.000458886
0.000458888
0.000458342
0.000457305
0.000455829
0.000453955
0.000451718
0.000449147
0.000446257
0.000443058
0.000439553
0.000435735
0.000431592
0.000427105
0.000422249
0.000416993
0.000411303
0.000405138
0.000398454
0.0003912
0.000383326
0.000374775
0.000365491
0.000355414
0.000344485
0.000332646
0.000319875
0.000306226
0.000291831
0.000276971
0.00026202
0.000247137
0.000232307
0.000217474
0.000202608
0.000187851
0.000173583
0.000160088
0.000147463
0.00013573
0.000124865
0.000114829
0.000105572
9.7036e-05
8.91642e-05
8.19018e-05
7.51979e-05
6.90036e-05
6.32748e-05
5.79695e-05
5.30495e-05
4.84792e-05
4.42259e-05
4.02594e-05
3.65517e-05
3.30772e-05
2.98118e-05
2.67334e-05
2.38213e-05
2.10559e-05
1.84187e-05
1.58918e-05
1.3458e-05
1.10997e-05
8.79679e-06
6.54182e-06
4.35667e-06
2.08664e-06
-8.42046e-07
-2.531e-06
0.000448254
0.000452115
0.000454811
0.000456585
0.000457775
0.000458404
0.000458494
0.000458092
0.000457242
0.000455986
0.000454357
0.000452386
0.000450093
0.000447493
0.000444594
0.000441395
0.00043789
0.000434065
0.0004299
0.000425368
0.000420437
0.000415069
0.000409217
0.000402831
0.000395855
0.000388228
0.00037988
0.000370739
0.000360723
0.000349741
0.000337669
0.000324424
0.000310048
0.000294661
0.000278706
0.000262877
0.000247348
0.00023196
0.000216503
0.000200794
0.00018496
0.000169732
0.000155569
0.000142529
0.000130579
0.000119647
0.000109658
0.000100531
9.21843e-05
8.45429e-05
7.75396e-05
7.11116e-05
6.52035e-05
5.9764e-05
5.47474e-05
5.01112e-05
4.58176e-05
4.18315e-05
3.81214e-05
3.46584e-05
3.14162e-05
2.83708e-05
2.55002e-05
2.2784e-05
2.02033e-05
1.77403e-05
1.53782e-05
1.3101e-05
1.08921e-05
8.73385e-06
6.61812e-06
4.5609e-06
2.43624e-06
-2.18656e-07
-1.88118e-06
0.000449357
0.000452762
0.000455157
0.000456754
0.000457848
0.000458455
0.00045859
0.000458288
0.000457585
0.000456514
0.000455102
0.000453374
0.000451345
0.000449028
0.000446427
0.000443541
0.000440362
0.000436875
0.000433059
0.000428885
0.000424318
0.000419316
0.000413829
0.0004078
0.000401165
0.000393853
0.000385785
0.00037687
0.000367009
0.000356073
0.000343828
0.000330066
0.00031482
0.000298069
0.000280476
0.000263573
0.000247476
0.000231675
0.00021569
0.000198974
0.0001815
0.000164932
0.000149997
0.000136541
0.00012443
0.000113499
0.00010363
9.47107e-05
8.66261e-05
7.92826e-05
7.25983e-05
6.65023e-05
6.09301e-05
5.58263e-05
5.11399e-05
4.6826e-05
4.28438e-05
3.91568e-05
3.57322e-05
3.25405e-05
2.95552e-05
2.67522e-05
2.41101e-05
2.16091e-05
1.92312e-05
1.69598e-05
1.47791e-05
1.26745e-05
1.06312e-05
8.63344e-06
6.67306e-06
4.75937e-06
2.79765e-06
4.44782e-07
-1.18236e-06
0.000451044
0.000453982
0.000456057
0.000457454
0.000458423
0.000458974
0.000459118
0.000458882
0.000458295
0.000457381
0.000456164
0.00045466
0.000452884
0.000450844
0.000448544
0.000445979
0.000443141
0.000440014
0.000436575
0.000432794
0.000428634
0.000424048
0.000418983
0.000413376
0.000407156
0.000400244
0.00039255
0.00038397
0.000374406
0.000363716
0.000351476
0.000337206
0.000320994
0.000302367
0.000281997
0.000263731
0.00024737
0.000231587
0.000215425
0.000197493
0.00017715
0.000158697
0.000142977
0.000129216
0.000117101
0.000106295
9.66605e-05
8.80552e-05
8.03258e-05
7.33595e-05
6.70665e-05
6.13644e-05
5.61849e-05
5.14663e-05
4.71555e-05
4.32042e-05
3.95701e-05
3.62152e-05
3.31059e-05
3.02123e-05
2.7508e-05
2.49696e-05
2.2576e-05
2.03088e-05
1.81509e-05
1.6087e-05
1.4103e-05
1.21857e-05
1.03222e-05
8.4993e-06
6.7084e-06
4.95206e-06
3.16855e-06
1.14228e-06
-4.41774e-07
0.000453228
0.000455687
0.000457429
0.000458606
0.000459426
0.000459896
0.000460023
0.000459827
0.00045933
0.000458552
0.000457509
0.000456217
0.000454685
0.00045292
0.000450923
0.000448689
0.000446208
0.000443463
0.000440432
0.000437082
0.000433375
0.000429261
0.000424683
0.000419571
0.000413847
0.000407425
0.000400211
0.000392096
0.00038302
0.000372941
0.000361072
0.000346204
0.000328677
0.000307153
0.000282602
0.000262767
0.000246813
0.000231871
0.000216271
0.000197021
0.000172308
0.000150862
0.0001342
0.000120279
0.000108423
9.79132e-05
8.86672e-05
8.05205e-05
7.32568e-05
6.67621e-05
6.0939e-05
5.57012e-05
5.09738e-05
4.66944e-05
4.28064e-05
3.92603e-05
3.60121e-05
3.30231e-05
3.02591e-05
2.76905e-05
2.52912e-05
2.30385e-05
2.09127e-05
1.88964e-05
1.69743e-05
1.51326e-05
1.33589e-05
1.16419e-05
9.9708e-06
8.33497e-06
6.72582e-06
5.13853e-06
3.54632e-06
1.86719e-06
3.33208e-07
0.000455823
0.000457794
0.000459191
0.000460134
0.000460789
0.000461159
0.000461247
0.00046107
0.000460644
0.000459984
0.000459103
0.000458012
0.000456718
0.000455226
0.000453537
0.000451643
0.000449536
0.000447198
0.000444606
0.000441729
0.000438524
0.000434942
0.00043092
0.000426382
0.000421242
0.000415408
0.000408782
0.000401247
0.000392839
0.000383905
0.000373044
0.000357174
0.000338304
0.000309587
0.00028034
0.000259822
0.000245592
0.000232595
0.000218904
0.000199216
0.000170003
0.000140895
0.000123529
0.00010962
9.83296e-05
8.82414e-05
7.95731e-05
7.20798e-05
6.54145e-05
5.949e-05
5.42249e-05
4.95229e-05
4.53116e-05
4.15265e-05
3.81108e-05
3.50134e-05
3.21898e-05
2.96007e-05
2.7212e-05
2.49946e-05
2.29233e-05
2.09767e-05
1.91364e-05
1.7387e-05
1.57148e-05
1.41081e-05
1.25565e-05
1.10509e-05
9.58263e-06
8.14422e-06
6.72675e-06
5.31822e-06
3.92779e-06
2.61218e-06
1.13399e-06
0.000458746
0.000460224
0.000461269
0.000461968
0.000462445
0.0004627
0.000462735
0.000462562
0.000462192
0.000461636
0.000460905
0.000460007
0.000458947
0.000457729
0.000456352
0.00045481
0.000453094
0.000451187
0.000449067
0.000446703
0.000444053
0.000441067
0.000437677
0.000433801
0.000429341
0.000424196
0.000418274
0.00041141
0.000403716
0.000396775
0.000388574
0.000371722
0.000362801
0.000324316
0.000266015
0.000249757
0.00024273
0.000234461
0.000227807
0.00021612
0.000154912
0.000114963
0.000108417
9.60488e-05
8.68758e-05
7.72811e-05
6.93588e-05
6.27627e-05
5.68149e-05
5.15636e-05
4.6943e-05
4.2852e-05
3.92194e-05
3.59854e-05
3.30919e-05
3.04876e-05
2.81275e-05
2.59722e-05
2.39884e-05
2.21475e-05
2.0426e-05
1.88041e-05
1.72657e-05
1.5797e-05
1.43869e-05
1.3026e-05
1.17064e-05
1.04209e-05
9.16393e-06
7.93077e-06
6.71278e-06
5.4903e-06
4.30969e-06
3.36945e-06
1.95205e-06
0.000461914
0.000462898
0.000463587
0.000464037
0.000464327
0.000464458
0.000464429
0.000464248
0.000463923
0.000463462
0.000462873
0.000462162
0.000461333
0.000460389
0.00045933
0.00045815
0.000456841
0.000455389
0.000453773
0.000451964
0.000449924
0.000447602
0.000444927
0.000441808
0.000438128
0.000433763
0.000428608
0.000422319
0.000415091
0.000413244
0.000414171
0.000395594
0.000406779
0.000453144
0.000200424
0.000217091
0.000235581
0.000240594
0.000254913
0.000306632
1.42568e-05
6.60402e-05
8.31806e-05
7.40738e-05
7.46377e-05
6.54249e-05
5.82155e-05
5.26996e-05
4.75042e-05
4.30088e-05
3.91284e-05
3.57185e-05
3.27275e-05
3.01004e-05
2.77792e-05
2.57124e-05
2.38544e-05
2.21665e-05
2.06157e-05
1.91756e-05
1.78239e-05
1.65437e-05
1.53209e-05
1.41448e-05
1.30068e-05
1.19002e-05
1.08197e-05
9.76107e-06
8.72107e-06
7.69877e-06
6.68537e-06
5.65399e-06
4.68835e-06
4.13073e-06
2.77773e-06
0.000465247
0.00046574
0.000466074
0.000466272
0.000466373
0.000466373
0.000466273
0.000466076
0.000465788
0.000465415
0.000464961
0.000464432
0.000463832
0.000463163
0.000462426
0.000461618
0.000460731
0.000459754
0.000458672
0.000457459
0.000456084
0.000454498
0.000452631
0.000450378
0.000447586
0.000444015
0.000439325
0.000432383
0.000422676
0.000433216
0.000458566
0.000461855
0.000250958
0.000358483
0.000178174
0.000218033
0.000240821
0.000248013
0.000265543
0.000333228
0.000119086
0.000215115
2.92574e-05
5.04348e-05
6.36822e-05
5.14284e-05
4.56498e-05
4.2076e-05
3.75575e-05
3.38927e-05
3.08376e-05
2.81681e-05
2.58736e-05
2.39074e-05
2.22083e-05
2.07226e-05
1.94054e-05
1.8217e-05
1.71266e-05
1.61089e-05
1.51452e-05
1.42207e-05
1.33251e-05
1.24506e-05
1.15919e-05
1.07454e-05
9.90884e-06
9.08069e-06
8.26113e-06
7.45241e-06
6.6463e-06
5.80839e-06
5.0602e-06
4.88748e-06
3.60172e-06
0.000468667
0.000468676
0.00046866
0.000468609
0.000468519
0.000468387
0.000468212
0.000467995
0.000467738
0.000467445
0.000467122
0.000466771
0.000466397
0.000466004
0.000465592
0.000465161
0.000464708
0.000464225
0.000463702
0.000463123
0.000462464
0.000461692
0.000460745
0.000459519
0.000457864
0.000455361
0.000451125
0.000442776
0.000420578
0.000420449
0.000460264
0.000309829
0.000315273
0.00134272
0.00160205
0.00161295
0.00159298
0.00157653
0.00159121
0.00166043
0.00173025
0.000900926
0.00020716
0.000133513
4.66505e-05
2.78663e-05
2.95117e-05
3.16446e-05
2.72524e-05
2.4362e-05
2.21638e-05
2.02491e-05
1.86963e-05
1.74456e-05
1.64181e-05
1.5559e-05
1.48199e-05
1.41629e-05
1.35574e-05
1.29821e-05
1.24209e-05
1.18637e-05
1.13034e-05
1.07365e-05
1.01612e-05
9.57757e-06
8.98659e-06
8.39014e-06
7.79133e-06
7.19641e-06
6.59731e-06
5.95279e-06
5.42139e-06
5.63095e-06
4.41374e-06
0.000472095
0.000471635
0.000471278
0.000470983
0.000470706
0.000470442
0.000470191
0.00046995
0.000469721
0.000469505
0.000469307
0.00046913
0.00046898
0.00046886
0.000468774
0.000468725
0.000468712
0.000468735
0.00046879
0.00046887
0.000468971
0.000469084
0.000469173
0.00046919
0.000469263
0.000469071
0.0004673
0.00046855
0.000460277
0.000286334
0.000303628
0.00158285
0.00111377
0.00131448
0.0014629
0.00151759
0.00153171
0.00153373
0.00153848
0.00154239
0.00149553
0.00126906
0.0013
0.00122627
0.000175292
1.12421e-05
1.91147e-05
2.37733e-05
1.55841e-05
1.40787e-05
1.30301e-05
1.19418e-05
1.12146e-05
1.07495e-05
1.04528e-05
1.02668e-05
1.01452e-05
1.00486e-05
9.95098e-06
9.83379e-06
9.68685e-06
9.50392e-06
9.28362e-06
9.02635e-06
8.73514e-06
8.41369e-06
8.06701e-06
7.70001e-06
7.3196e-06
6.9355e-06
6.54053e-06
6.08642e-06
5.76834e-06
6.35232e-06
5.20413e-06
0.000475457
0.000474547
0.000473862
0.000473332
0.000472875
0.000472483
0.000472157
0.000471893
0.000471688
0.000471545
0.000471468
0.00047146
0.000471528
0.000471678
0.000471916
0.000472248
0.000472678
0.00047321
0.00047385
0.000474601
0.00047548
0.000476519
0.000477732
0.000479212
0.000481848
0.00048498
0.000478262
0.000477352
0.000319394
0.000650422
0.000868221
0.00125208
0.00125729
0.00133852
0.00141748
0.00146281
0.00148252
0.00148822
0.00148659
0.00147512
0.00144042
0.00138152
0.00142632
0.00161349
0.00233228
0.000287754
4.21248e-05
5.84438e-06
-2.88909e-06
2.4654e-06
3.41544e-06
3.31488e-06
3.50715e-06
3.88721e-06
4.3698e-06
4.90447e-06
5.43582e-06
5.92734e-06
6.35522e-06
6.7084e-06
6.9816e-06
7.17607e-06
7.29532e-06
7.34598e-06
7.33527e-06
7.2719e-06
7.16439e-06
7.02169e-06
6.85391e-06
6.67494e-06
6.47803e-06
6.20882e-06
6.09734e-06
7.04286e-06
5.96258e-06
0.000478681
0.000477345
0.000476351
0.0004756
0.000474971
0.000474458
0.00047406
0.000473772
0.000473591
0.000473517
0.000473556
0.000473711
0.000473992
0.000474405
0.00047496
0.000475667
0.000476535
0.000477572
0.000478787
0.000480191
0.00048181
0.000483727
0.000486102
0.000489285
0.000495706
0.000507961
0.000489111
0.000620895
0.00227782
0.00142019
0.00124661
0.00129996
0.00132477
0.00136483
0.0014057
0.00143365
0.00144734
0.00145004
0.00144455
0.00143111
0.00140955
0.0013903
0.00141036
0.00147034
0.00150604
0.000911211
-0.000245626
-2.99423e-05
-7.08883e-06
-2.39512e-06
-4.82707e-06
-5.10936e-06
-4.20753e-06
-3.04516e-06
-1.76107e-06
-4.64887e-07
7.56465e-07
1.85847e-06
2.82591e-06
3.65442e-06
4.3488e-06
4.91706e-06
5.37085e-06
5.72219e-06
5.98448e-06
6.17063e-06
6.2939e-06
6.36657e-06
6.40276e-06
6.41986e-06
6.41227e-06
6.31947e-06
6.40503e-06
7.69403e-06
6.67964e-06
0.000481698
0.000479968
0.000478687
0.000477729
0.000476941
0.000476316
0.000475851
0.000475541
0.000475382
0.000475374
0.000475523
0.000475834
0.000476317
0.000476984
0.000477848
0.000478921
0.000480217
0.000481746
0.000483516
0.000485521
0.000487738
0.00049021
0.000493076
0.000495538
0.000496335
0.000513467
0.000606854
0.0014972
0.00170659
0.00150928
0.00139807
0.00137636
0.00137702
0.00139032
0.00140682
0.00141875
0.00142315
0.00142007
0.00141045
0.00139523
0.00137639
0.00135984
0.0013545
0.00135149
0.00131035
0.00115147
0.00119213
-0.000106742
-8.25526e-07
-3.70553e-06
-1.45093e-05
-1.47132e-05
-1.24441e-05
-1.01826e-05
-7.9372e-06
-5.7849e-06
-3.82504e-06
-2.08849e-06
-5.75414e-07
7.27034e-07
1.83472e-06
2.76713e-06
3.54338e-06
4.18339e-06
4.70577e-06
5.1291e-06
5.4705e-06
5.74649e-06
5.97443e-06
6.17579e-06
6.3456e-06
6.41823e-06
6.68808e-06
8.29765e-06
7.34555e-06
0.000484445
0.000482357
0.000480816
0.000479671
0.000478738
0.00047801
0.000477485
0.000477155
0.000477017
0.000477071
0.000477322
0.00047778
0.000478455
0.000479362
0.00048052
0.000481947
0.000483662
0.00048568
0.000488007
0.00049062
0.000493434
0.000496382
0.000499356
0.000499593
0.000490085
0.000492493
0.000889306
0.00138126
0.00154231
0.00151227
0.00146004
0.00143038
0.00141661
0.00141263
0.00141252
0.00141139
0.00140643
0.00139664
0.00138198
0.00136299
0.00134095
0.00131821
0.00129636
0.00127079
0.00123242
0.00119222
0.00127941
0.00167878
-4.51667e-05
-9.9143e-06
-3.29207e-05
-2.75585e-05
-2.18237e-05
-1.75937e-05
-1.40571e-05
-1.09417e-05
-8.20449e-06
-5.82681e-06
-3.77473e-06
-2.0137e-06
-5.09815e-07
7.67499e-07
1.8478e-06
2.75775e-06
3.52278e-06
4.16601e-06
4.70939e-06
5.17279e-06
5.57738e-06
5.94791e-06
6.28063e-06
6.50486e-06
6.94361e-06
8.84603e-06
7.95173e-06
0.000486864
0.000484459
0.000482688
0.000481377
0.000480317
0.000479498
0.00047892
0.000478574
0.000478456
0.000478566
0.000478911
0.000479502
0.000480353
0.000481485
0.000482919
0.000484683
0.000486805
0.000489314
0.000492232
0.000495564
0.000499306
0.000503586
0.000508796
0.000512899
0.000494343
0.000576309
0.00181598
0.00159523
0.00156913
0.00153745
0.00149944
0.00146851
0.0014464
0.00143106
0.00141926
0.00140784
0.00139456
0.00137809
0.00135786
0.0013338
0.00130624
0.0012757
0.00124196
0.00120292
0.00115633
0.00110559
0.00105451
0.000882552
-0.000128909
-0.000116373
-3.79552e-05
-3.37334e-05
-3.01212e-05
-2.44721e-05
-1.97055e-05
-1.56957e-05
-1.22296e-05
-9.24627e-06
-6.68993e-06
-4.50219e-06
-2.63337e-06
-1.03936e-06
3.17997e-07
1.47351e-06
2.45795e-06
3.29985e-06
4.02485e-06
4.65669e-06
5.21947e-06
5.74149e-06
6.2197e-06
6.57945e-06
7.16882e-06
9.33207e-06
8.48964e-06
0.000488904
0.000486228
0.000484259
0.000482808
0.000481639
0.000480743
0.00048012
0.000479761
0.00047966
0.00047982
0.000480248
0.000480957
0.000481965
0.000483296
0.000484981
0.000487054
0.000489558
0.000492537
0.000496033
0.000500089
0.000504843
0.000510275
0.000514077
0.000518761
0.000580778
0.00100248
0.00155342
0.00161457
0.00160152
0.00156895
0.00153176
0.00149782
0.00146942
0.00144597
0.0014256
0.00140618
0.00138587
0.0013633
0.00133758
0.00130811
0.00127452
0.00123639
0.00119288
0.0011426
0.00108442
0.00101931
0.000950509
0.000889081
0.00100406
-7.00037e-05
-2.27837e-05
-4.46577e-05
-3.83972e-05
-3.06525e-05
-2.47664e-05
-1.99106e-05
-1.57712e-05
-1.2245e-05
-9.2402e-06
-6.67602e-06
-4.48547e-06
-2.61373e-06
-1.0133e-06
3.56655e-07
1.53276e-06
2.54747e-06