/*--------------------------------*- C++ -*----------------------------------*\
  =========                 |
  \\      /  F ield         | OpenFOAM: The Open Source CFD Toolbox
   \\    /   O peration     | Website:  https://openfoam.org
    \\  /    A nd           | Version:  7
     \\/     M anipulation  |
\*---------------------------------------------------------------------------*/
FoamFile
{
    version     2.0;
    format      ascii;
    class       surfaceScalarField;
    location    "5";
    object      phi;
}
// * * * * * * * * * * * * * * * * * * * * * * * * * * * * * * * * * * * * * //

dimensions      [0 3 -1 0 0 0 0];

internalField   nonuniform List<scalar> 
11100
(
1.93053e-13
7.36141e-14
1.3252e-13
6.05328e-14
9.56156e-14
3.69042e-14
7.29731e-14
2.26424e-14
5.86283e-14
1.43449e-14
4.92492e-14
9.37906e-15
4.29205e-14
6.3287e-15
3.85438e-14
4.37671e-15
3.54823e-14
3.06154e-15
3.33526e-14
2.12966e-15
3.19126e-14
1.44003e-15
3.10014e-14
9.11145e-16
3.05077e-14
4.93719e-16
3.03511e-14
1.56681e-16
3.04713e-14
-1.20286e-16
3.08222e-14
-3.50843e-16
3.13665e-14
-5.4435e-16
3.20738e-14
-7.07263e-16
3.29178e-14
-8.44035e-16
3.38755e-14
-9.57671e-16
3.49257e-14
-1.05015e-15
3.60483e-14
-1.12268e-15
3.72243e-14
-1.17596e-15
3.84346e-14
-1.21027e-15
3.96603e-14
-1.22572e-15
4.08826e-14
-1.22229e-15
4.20826e-14
-1.19998e-15
4.32415e-14
-1.1589e-15
4.43409e-14
-1.0994e-15
4.53629e-14
-1.02206e-15
4.62908e-14
-9.27823e-16
4.71087e-14
-8.17964e-16
4.78029e-14
-6.9415e-16
4.83612e-14
-5.5834e-16
4.8774e-14
-4.12824e-16
4.90341e-14
-2.60068e-16
4.91368e-14
-1.02729e-16
4.90803e-14
5.64914e-17
4.88655e-14
2.14867e-16
4.84957e-14
3.6975e-16
4.79771e-14
5.18624e-16
4.73179e-14
6.59168e-16
4.65286e-14
7.8935e-16
4.56212e-14
9.07432e-16
4.46091e-14
1.01209e-15
4.35067e-14
1.10235e-15
4.2329e-14
1.17769e-15
4.10911e-14
1.23791e-15
3.98079e-14
1.28325e-15
3.84937e-14
1.31417e-15
3.71622e-14
1.33147e-15
3.58262e-14
1.33608e-15
3.4497e-14
1.32918e-15
3.31851e-14
1.31192e-15
3.18994e-14
1.28568e-15
3.06477e-14
1.25171e-15
2.94362e-14
1.21142e-15
2.82702e-14
1.16608e-15
2.71531e-14
1.11705e-15
2.60875e-14
1.0656e-15
2.50745e-14
1.01305e-15
2.41138e-14
9.60677e-16
2.32039e-14
9.09864e-16
2.23419e-14
8.62009e-16
2.15232e-14
8.18738e-16
2.07413e-14
7.81884e-16
1.99875e-14
7.53781e-16
1.925e-14
7.37477e-16
1.85126e-14
7.37463e-16
1.7752e-14
7.60593e-16
1.69349e-14
8.17106e-16
1.6011e-14
9.23884e-16
1.48898e-14
1.12114e-15
1.34116e-14
1.47824e-15
1.91693e-15
2.69379e-13
7.09014e-14
2.40877e-13
8.90354e-14
2.05674e-13
7.21073e-14
1.74913e-13
5.34028e-14
1.50652e-13
3.86064e-14
1.32245e-13
2.77856e-14
1.18502e-13
2.0072e-14
1.08335e-13
1.45441e-14
1.00898e-13
1.04985e-14
9.55668e-14
7.46067e-15
9.18861e-14
5.12066e-15
8.95219e-14
3.27543e-15
8.82253e-14
1.79032e-15
8.78076e-14
5.74385e-16
8.81221e-14
-4.34862e-16
8.90523e-14
-1.28097e-15
9.05025e-14
-1.99456e-15
9.23924e-14
-2.59719e-15
9.46523e-14
-3.10394e-15
9.72198e-14
-3.52517e-15
1.00037e-13
-3.86773e-15
1.03051e-13
-4.13597e-15
1.06207e-13
-4.33236e-15
1.09455e-13
-4.45815e-15
1.12743e-13
-4.51381e-15
1.1602e-13
-4.49951e-15
1.19236e-13
-4.41548e-15
1.22339e-13
-4.26239e-15
1.25281e-13
-4.04163e-15
1.28015e-13
-3.75558e-15
1.30495e-13
-3.40778e-15
1.3268e-13
-3.00303e-15
1.34533e-13
-2.54738e-15
1.36023e-13
-2.04806e-15
1.37123e-13
-1.5133e-15
1.37816e-13
-9.52131e-16
1.38087e-13
-3.7407e-16
1.37932e-13
2.11047e-16
1.37354e-13
7.93408e-16
1.3636e-13
1.36341e-15
1.34967e-13
1.91196e-15
1.33195e-13
2.43066e-15
1.31073e-13
2.91208e-15
1.2863e-13
3.34998e-15
1.25903e-13
3.73938e-15
1.22928e-13
4.07676e-15
1.19746e-13
4.35999e-15
1.16396e-13
4.58837e-15
1.12916e-13
4.76242e-15
1.09347e-13
4.88385e-15
1.05723e-13
4.95523e-15
1.02079e-13
4.98002e-15
9.84461e-14
4.96211e-15
9.48521e-14
4.90595e-15
9.13216e-14
4.81614e-15
8.78758e-14
4.69754e-15
8.45322e-14
4.55498e-15
8.1305e-14
4.39336e-15
7.82045e-14
4.21748e-15
7.52379e-14
4.03219e-15
7.24088e-14
3.84221e-15
6.97171e-14
3.6524e-15
6.71593e-14
3.46766e-15
6.47281e-14
3.29319e-15
6.24122e-14
3.13461e-15
6.01958e-14
2.99829e-15
5.80579e-14
2.89171e-15
5.59712e-14
2.82414e-15
5.39011e-14
2.80757e-15
5.18037e-14
2.85797e-15
4.96249e-14
2.99597e-15
4.73002e-14
3.2486e-15
4.47654e-14
3.6559e-15
4.20048e-14
4.23882e-15
4.79685e-15
2.79726e-13
5.78425e-14
2.75862e-13
9.28993e-14
2.57916e-13
9.00525e-14
2.35436e-13
7.58828e-14
2.13702e-13
6.03411e-14
1.94832e-13
4.66556e-14
1.79371e-13
3.55326e-14
1.67173e-13
2.67425e-14
1.57847e-13
1.98243e-14
1.50965e-13
1.4342e-14
1.46139e-13
9.94684e-15
1.43038e-13
6.37649e-15
1.4139e-13
3.43824e-15
1.40973e-13
9.9188e-16
1.41602e-13
-1.06451e-15
1.43126e-13
-2.80501e-15
1.45415e-13
-4.28336e-15
1.48356e-13
-5.53827e-15
1.5185e-13
-6.59729e-15
1.55804e-13
-7.47952e-15
1.60134e-13
-8.19777e-15
1.64758e-13
-8.76008e-15
1.69597e-13
-9.17111e-15
1.74572e-13
-9.43313e-15
1.79605e-13
-9.54706e-15
1.84619e-13
-9.51322e-15
1.89536e-13
-9.33223e-15
1.94279e-13
-9.00558e-15
1.98774e-13
-8.53638e-15
2.02948e-13
-7.92975e-15
2.06733e-13
-7.19326e-15
2.10067e-13
-6.33705e-15
2.12894e-13
-5.37392e-15
2.15165e-13
-4.31905e-15
2.16841e-13
-3.18971e-15
2.17894e-13
-2.00477e-15
2.18304e-13
-7.84203e-16
2.18064e-13
4.51507e-16
2.17175e-13
1.68181e-15
2.15652e-13
2.88669e-15
2.13517e-13
4.04707e-15
2.10802e-13
5.14542e-15
2.07548e-13
6.16614e-15
2.03802e-13
7.09606e-15
1.99617e-13
7.92472e-15
1.95049e-13
8.64458e-15
1.90158e-13
9.25111e-15
1.85003e-13
9.74258e-15
1.79646e-13
1.012e-14
1.74143e-13
1.03867e-14
1.6855e-13
1.05481e-14
1.62919e-13
1.06109e-14
1.57298e-13
1.05835e-14
1.51729e-13
1.04748e-14
1.4625e-13
1.02947e-14
1.40895e-13
1.00529e-14
1.3569e-13
9.75993e-15
1.30658e-13
9.42576e-15
1.25815e-13
9.06064e-15
1.21172e-13
8.6746e-15
1.16737e-13
8.27768e-15
1.12509e-13
7.87986e-15
1.08485e-13
7.49137e-15
1.04656e-13
7.12271e-15
1.01005e-13
6.78508e-15
9.75131e-14
6.49065e-15
9.41518e-14
6.25308e-15
9.08878e-14
6.08808e-15
8.76813e-14
6.01406e-15
8.4487e-14
6.05233e-15
8.1257e-14
6.22588e-15
7.79493e-14
6.55637e-15
7.45463e-14
7.05886e-15
7.10905e-14
7.69466e-15
8.21023e-15
2.78651e-13
4.58583e-14
2.8489e-13
8.66602e-14
2.80083e-13
9.48597e-14
2.68218e-13
8.77479e-14
2.53525e-13
7.5034e-14
2.38775e-13
6.14052e-14
2.25464e-13
4.88433e-14
2.14239e-13
3.79681e-14
2.05262e-13
2.88006e-14
1.9846e-13
2.11444e-14
1.93654e-13
1.47533e-14
1.90633e-13
9.3966e-15
1.89192e-13
4.87986e-15
1.89136e-13
1.04749e-15
1.90293e-13
-2.22174e-15
1.92509e-13
-5.02056e-15
1.95644e-13
-7.41881e-15
1.99574e-13
-9.46822e-15
2.04183e-13
-1.12062e-14
2.09363e-13
-1.2659e-14
2.15009e-13
-1.38443e-14
2.21022e-13
-1.47728e-14
2.27302e-13
-1.54508e-14
2.3375e-13
-1.58809e-14
2.40266e-13
-1.60639e-14
2.46753e-13
-1.59999e-14
2.53111e-13
-1.56898e-14
2.59241e-13
-1.51359e-14
2.65048e-13
-1.43433e-14
2.70439e-13
-1.33207e-14
2.75326e-13
-1.20806e-14
2.79629e-13
-1.06401e-14
2.83276e-13
-9.02064e-15
2.86204e-13
-7.24766e-15
2.88365e-13
-5.35002e-15
2.89719e-13
-3.35928e-15
2.90244e-13
-1.30871e-15
2.89928e-13
7.67485e-16
2.88774e-13
2.83514e-15
2.868e-13
4.86083e-15
2.84035e-13
6.8128e-15
2.80518e-13
8.6617e-15
2.76303e-13
1.03815e-14
2.71449e-13
1.19499e-14
2.66024e-13
1.33496e-14
2.60101e-13
1.45677e-14
2.53756e-13
1.55965e-14
2.47065e-13
1.64331e-14
2.40106e-13
1.70789e-14
2.32954e-13
1.75394e-14
2.25679e-13
1.78231e-14
2.18348e-13
1.79417e-14
2.11023e-13
1.79086e-14
2.03759e-13
1.77387e-14
1.96605e-13
1.74482e-14
1.89605e-13
1.70536e-14
1.82793e-13
1.65718e-14
1.76198e-13
1.60199e-14
1.69844e-13
1.54147e-14
1.63746e-13
1.4773e-14
1.57913e-13
1.41111e-14
1.52347e-13
1.34457e-14
1.47045e-13
1.27933e-14
1.41997e-13
1.21707e-14
1.37187e-13
1.15953e-14
1.32592e-13
1.10854e-14
1.28184e-13
1.06607e-14
1.2393e-13
1.03421e-14
1.19792e-13
1.0152e-14
1.15732e-13
1.01129e-14
1.11713e-13
1.02444e-14
1.07713e-13
1.05562e-14
1.03734e-13
1.10381e-14
9.98113e-14
1.16174e-14
1.20518e-14
2.75885e-13
3.66398e-14
2.85337e-13
7.72086e-14
2.88235e-13
9.19617e-14
2.84861e-13
9.11215e-14
2.77483e-13
8.24121e-14
2.68324e-13
7.05648e-14
2.59007e-13
5.81603e-14
2.50536e-13
4.64385e-14
2.43447e-13
3.58893e-14
2.3797e-13
2.66219e-14
2.34152e-13
1.85717e-14
2.3194e-13
1.16083e-14
2.31232e-13
5.58777e-15
2.31903e-13
3.76423e-16
2.33822e-13
-4.14036e-15
2.36857e-13
-8.05625e-15
2.40884e-13
-1.14452e-14
2.45779e-13
-1.43636e-14
2.51426e-13
-1.68531e-14
2.5771e-13
-1.8943e-14
2.64518e-13
-2.06528e-14
2.71739e-13
-2.19939e-14
2.79261e-13
-2.29721e-14
2.86969e-13
-2.35891e-14
2.9475e-13
-2.38447e-14
3.02488e-13
-2.37378e-14
3.10067e-13
-2.32687e-14
3.17371e-13
-2.24404e-14
3.24288e-13
-2.126e-14
3.30707e-13
-1.97398e-14
3.36525e-13
-1.78985e-14
3.41646e-13
-1.5761e-14
3.45984e-13
-1.3359e-14
3.49466e-13
-1.07301e-14
3.52033e-13
-7.91704e-15
3.53641e-13
-4.96645e-15
3.54259e-13
-1.92742e-15
3.53877e-13
1.14977e-15
3.52497e-13
4.21477e-15
3.5014e-13
7.21844e-15
3.46839e-13
1.01139e-14
3.42643e-13
1.28579e-14
3.37612e-13
1.54117e-14
3.3182e-13
1.77425e-14
3.25345e-13
1.98244e-14
3.18274e-13
2.16384e-14
3.10698e-13
2.3173e-14
3.02707e-13
2.44237e-14
2.94394e-13
2.53927e-14
2.85845e-13
2.60879e-14
2.77146e-13
2.6522e-14
2.68376e-13
2.67117e-14
2.59608e-13
2.66769e-14
2.50907e-13
2.64395e-14
2.42332e-13
2.60229e-14
2.33934e-13
2.54515e-14
2.25756e-13
2.475e-14
2.17833e-13
2.39434e-14
2.10191e-13
2.30562e-14
2.02851e-13
2.21129e-14
1.95825e-13
2.11373e-14
1.89118e-13
2.01532e-14
1.82727e-13
1.91843e-14
1.76643e-13
1.8254e-14
1.70852e-13
1.73862e-14
1.65333e-13
1.66052e-14
1.60057e-13
1.59358e-14
1.54997e-13
1.54028e-14
1.50118e-13
1.50306e-14
1.4539e-13
1.48408e-14
1.40787e-13
1.48476e-14
1.36293e-13
1.505e-14
1.3191e-13
1.54214e-14
1.27649e-13
1.58782e-14
1.62135e-14
2.73553e-13
2.97539e-14
2.83416e-13
6.7345e-14
2.90293e-13
8.50852e-14
2.92703e-13
8.87115e-14
2.91343e-13
8.37721e-14
2.87572e-13
7.43351e-14
2.82703e-13
6.30301e-14
2.77742e-13
5.13995e-14
2.73369e-13
4.02623e-14
2.69994e-13
2.99966e-14
2.67834e-13
2.07322e-14
2.66974e-13
1.24683e-14
2.67418e-13
5.14327e-15
2.69121e-13
-1.3264e-15
2.72007e-13
-7.02616e-15
2.75984e-13
-1.20333e-14
2.80951e-13
-1.64126e-14
2.86803e-13
-2.02156e-14
2.93431e-13
-2.34808e-14
3.00723e-13
-2.62353e-14
3.08566e-13
-2.8496e-14
3.16844e-13
-3.0272e-14
3.25439e-13
-3.15661e-14
3.34227e-13
-3.23772e-14
3.43084e-13
-3.27019e-14
3.51883e-13
-3.25369e-14
3.60495e-13
-3.18811e-14
3.68792e-13
-3.0737e-14
3.76645e-13
-2.91135e-14
3.83932e-13
-2.70266e-14
3.90535e-13
-2.4501e-14
3.96345e-13
-2.15709e-14
4.01265e-13
-1.82793e-14
4.05213e-13
-1.46778e-14
4.08121e-13
-1.08249e-14
4.09939e-13
-6.78449e-15
4.10635e-13
-2.62336e-15
4.10194e-13
1.58988e-15
4.08622e-13
5.78685e-15
4.0594e-13
9.90063e-15
4.02187e-13
1.38673e-14
3.97417e-13
1.76276e-14
3.917e-13
2.11286e-14
3.85117e-13
2.43253e-14
3.7776e-13
2.71819e-14
3.69726e-13
2.96725e-14
3.61117e-13
3.17814e-14
3.52038e-13
3.35026e-14
3.42592e-13
3.48392e-14
3.32878e-13
3.5802e-14
3.22991e-13
3.64085e-14
3.13022e-13
3.66813e-14
3.03051e-13
3.66474e-14
2.93154e-13
3.63366e-14
2.83396e-13
3.57806e-14
2.73835e-13
3.50125e-14
2.6452e-13
3.40656e-14
2.55489e-13
3.29735e-14
2.46776e-13
3.17693e-14
2.38403e-13
3.04858e-14
2.30386e-13
2.9155e-14
2.22731e-13
2.78084e-14
2.15438e-13
2.64768e-14
2.08501e-13
2.51907e-14
2.01907e-13
2.39804e-14
1.95637e-13
2.28755e-14
1.89667e-13
2.19054e-14
1.83972e-13
2.1098e-14
1.78524e-13
2.04789e-14
1.73297e-13
2.0068e-14
1.68269e-13
1.98754e-14
1.63425e-13
1.98937e-14
1.58757e-13
2.00897e-14
1.54251e-13
2.03836e-14
2.06104e-14
2.71947e-13
2.44737e-14
2.8126e-13
5.80322e-14
2.89943e-13
7.64019e-14
2.95953e-13
8.27015e-14
2.99026e-13
8.0699e-14
2.99761e-13
7.35997e-14
2.99024e-13
6.3767e-14
2.97635e-13
5.27885e-14
2.96249e-13
4.16489e-14
2.95334e-13
3.09119e-14
2.95197e-13
2.08691e-14
2.96019e-13
1.16458e-14
2.9789e-13
3.27227e-15
3.00834e-13
-4.27075e-15
3.04833e-13
-1.10248e-14
3.09837e-13
-1.70374e-14
3.15778e-13
-2.23533e-14
3.22572e-13
-2.70099e-14
3.30127e-13
-3.10356e-14
3.38341e-13
-3.44492e-14
3.47106e-13
-3.72609e-14
3.56307e-13
-3.94734e-14
3.65825e-13
-4.10838e-14
3.75533e-13
-4.20855e-14
3.85302e-13
-4.24702e-14
3.94995e-13
-4.22305e-14
4.04476e-13
-4.1362e-14
4.13605e-13
-3.98662e-14
4.22244e-13
-3.77525e-14
4.30258e-13
-3.50403e-14
4.37518e-13
-3.17608e-14
4.43904e-13
-2.79573e-14
4.49311e-13
-2.36859e-14
4.53646e-13
-1.90134e-14
4.56838e-13
-1.40161e-14
4.5883e-13
-8.77677e-15
4.59589e-13
-3.38203e-15
4.59099e-13
2.07984e-15
4.57365e-13
7.52074e-15
4.54411e-13
1.28545e-14
4.5028e-13
1.79985e-14
4.45031e-13
2.28759e-14
4.38742e-13
2.74176e-14
4.31503e-13
3.15649e-14
4.23413e-13
3.52713e-14
4.14582e-13
3.85034e-14
4.05123e-13
4.12409e-14
3.95149e-13
4.34766e-14
3.84774e-13
4.52146e-14
3.74106e-13
4.64693e-14
3.63251e-13
4.72636e-14
3.52306e-13
4.7627e-14
3.41359e-13
4.75943e-14
3.30492e-13
4.72037e-14
3.19776e-13
4.64962e-14
3.09275e-13
4.55139e-14
2.99041e-13
4.42996e-14
2.89118e-13
4.2896e-14
2.79542e-13
4.13454e-14
2.70339e-13
3.96893e-14
2.61526e-13
3.7968e-14
2.53113e-13
3.62211e-14
2.45103e-13
3.44869e-14
2.37491e-13
3.28026e-14
2.30267e-13
3.12046e-14
2.23414e-13
2.97279e-14
2.16914e-13
2.84058e-14
2.10743e-13
2.7269e-14
2.04877e-13
2.63443e-14
1.99294e-13
2.5651e-14
1.93972e-13
2.51973e-14
1.88892e-13
2.49745e-14
1.84032e-13
2.49498e-14
1.7936e-13
2.50554e-14
2.51688e-14
2.70897e-13
2.02437e-14
2.79436e-13
4.94927e-14
2.88778e-13
6.70603e-14
2.96886e-13
7.45938e-14
3.03013e-13
7.4571e-14
3.07224e-13
6.93894e-14
3.0997e-13
6.10212e-14
3.11821e-13
5.09369e-14
3.13316e-13
4.01542e-14
3.14895e-13
2.93331e-14
3.16888e-13
1.88759e-14
3.19524e-13
9.00982e-15
3.22947e-13
-1.50515e-16
3.27234e-13
-8.55844e-15
3.32415e-13
-1.62056e-14
3.3848e-13
-2.31022e-14
3.45392e-13
-2.92655e-14
3.53094e-13
-3.47119e-14
3.61512e-13
-3.94532e-14
3.70558e-13
-4.34952e-14
3.80134e-13
-4.68367e-14
3.90131e-13
-4.94708e-14
4.00433e-13
-5.13856e-14
4.10914e-13
-5.25663e-14
4.21441e-13
-5.29974e-14
4.31876e-13
-5.26654e-14
4.42075e-13
-5.1561e-14
4.51891e-13
-4.96829e-14
4.61179e-13
-4.704e-14
4.69793e-13
-4.36541e-14
4.77594e-13
-3.95625e-14
4.84456e-13
-3.48186e-14
4.90262e-13
-2.94918e-14
4.94915e-13
-2.36664e-14
4.98336e-13
-1.74378e-14
5.00469e-13
-1.09098e-14
5.01278e-13
-4.19018e-15
5.00746e-13
2.61184e-15
4.98879e-13
9.38765e-15
4.95702e-13
1.60307e-14
4.91263e-13
2.24384e-14
4.85624e-13
2.85144e-14
4.7887e-13
3.41721e-14
4.71097e-13
3.93378e-14
4.62415e-13
4.39531e-14
4.52942e-13
4.79763e-14
4.428e-13
5.13829e-14
4.32112e-13
5.41645e-14
4.21e-13
5.63271e-14
4.0958e-13
5.78894e-14
3.97963e-13
5.88803e-14
3.86253e-13
5.9337e-14
3.74544e-13
5.93026e-14
3.62923e-13
5.88248e-14
3.51466e-13
5.79538e-14
3.40238e-13
5.67417e-14
3.29296e-13
5.5241e-14
3.18688e-13
5.35041e-14
3.08451e-13
5.15824e-14
2.98614e-13
4.95266e-14
2.89196e-13
4.73855e-14
2.80211e-13
4.52066e-14
2.71662e-13
4.30357e-14
2.63548e-13
4.09169e-14
2.5586e-13
3.88923e-14
2.48586e-13
3.70021e-14
2.41708e-13
3.52834e-14
2.35207e-13
3.37701e-14
2.29061e-13
3.24903e-14
2.23248e-13
3.14645e-14
2.17743e-13
3.07019e-14
2.12522e-13
3.0196e-14
2.07551e-13
2.992e-14
2.02785e-13
2.98216e-14
2.98187e-14
2.70202e-13
1.67082e-14
2.78e-13
4.16945e-14
2.87428e-13
5.76324e-14
2.96671e-13
6.53513e-14
3.04797e-13
6.64448e-14
3.11539e-13
6.26471e-14
3.17034e-13
5.55262e-14
3.21614e-13
4.63572e-14
3.25666e-13
3.61017e-14
3.29557e-13
2.54424e-14
3.33592e-13
1.48406e-14
3.38009e-13
4.59326e-15
3.42976e-13
-5.11789e-15
3.48606e-13
-1.41876e-14
3.54959e-13
-2.25589e-14
3.6206e-13
-3.02029e-14
3.69899e-13
-3.71052e-14
3.78444e-13
-4.32569e-14
3.87641e-13
-4.86495e-14
3.97417e-13
-5.32712e-14
4.07686e-13
-5.71063e-14
4.1835e-13
-6.01346e-14
4.29297e-13
-6.23325e-14
4.40405e-13
-6.36746e-14
4.51544e-13
-6.41359e-14
4.62573e-13
-6.36944e-14
4.73346e-13
-6.23342e-14
4.83712e-13
-6.0049e-14
4.93518e-13
-5.68457e-14
5.02611e-13
-5.27475e-14
5.10846e-13
-4.77971e-14
5.18085e-13
-4.20578e-14
5.24207e-13
-3.56141e-14
5.29109e-13
-2.85687e-14
5.3271e-13
-2.10389e-14
5.34952e-13
-1.31509e-14
5.35796e-13
-5.03505e-15
5.3523e-13
3.17804e-15
5.33259e-13
1.1359e-14
5.29909e-13
1.93806e-14
5.25228e-13
2.71192e-14
5.19285e-13
3.44577e-14
5.12167e-13
4.12899e-14
5.03979e-13
4.75253e-14
4.9484e-13
5.30929e-14
4.84874e-13
5.79424e-14
4.74211e-13
6.20451e-14
4.62984e-13
6.53921e-14
4.51319e-13
6.79922e-14
4.39339e-13
6.98691e-14
4.27161e-13
7.10588e-14
4.14891e-13
7.16065e-14
4.02629e-13
7.15648e-14
3.90463e-13
7.09907e-14
3.78472e-13
6.99447e-14
3.66725e-13
6.84888e-14
3.55281e-13
6.66855e-14
3.44188e-13
6.45969e-14
3.33486e-13
6.22842e-14
3.23206e-13
5.98066e-14
3.1337e-13
5.72219e-14
3.03991e-13
5.45855e-14
2.95076e-13
5.19504e-14
2.86626e-13
4.93673e-14
2.78634e-13
4.68843e-14
2.7109e-13
4.45462e-14
2.63979e-13
4.23947e-14
2.57282e-13
4.04666e-14
2.5098e-13
3.87927e-14
2.45048e-13
3.73962e-14
2.3946e-13
3.62895e-14
2.34185e-13
3.54715e-14
2.2918e-13
3.49242e-14
2.2439e-13
3.46124e-14
3.44919e-14
2.69725e-13
1.36503e-14
2.76876e-13
3.45434e-14
2.86112e-13
4.83957e-14
2.95887e-13
5.55769e-14
3.05243e-13
5.70885e-14
3.13737e-13
5.41534e-14
3.21287e-13
4.79759e-14
3.28032e-13
3.96125e-14
3.34214e-13
2.99193e-14
3.40107e-13
1.95502e-14
3.45965e-13
8.98234e-15
3.52007e-13
-1.44915e-15
3.58406e-13
-1.15162e-14
3.65285e-13
-2.10671e-14
3.72729e-13
-3.00027e-14
3.80783e-13
-3.82567e-14
3.89461e-13
-4.57833e-14
3.9875e-13
-5.25465e-14
4.08615e-13
-5.85147e-14
4.19001e-13
-6.36566e-14
4.29833e-13
-6.79387e-14
4.41024e-13
-7.13254e-14
4.5247e-13
-7.37789e-14
4.64057e-13
-7.52611e-14
4.75656e-13
-7.57351e-14
4.8713e-13
-7.51684e-14
4.98332e-13
-7.35364e-14
5.09109e-13
-7.08258e-14
5.19303e-13
-6.70393e-14
5.28755e-13
-6.22001e-14
5.37313e-13
-5.63551e-14
5.44833e-13
-4.95777e-14
5.51187e-13
-4.19682e-14
5.56269e-13
-3.36504e-14
5.59996e-13
-2.47657e-14
5.6231e-13
-1.54654e-14
5.63178e-13
-5.90297e-15
5.62586e-13
3.76999e-15
5.60541e-13
1.34046e-14
5.57068e-13
2.28536e-14
5.52215e-13
3.19716e-14
5.46054e-13
4.0619e-14
5.38676e-13
4.86676e-14
5.30193e-13
5.60085e-14
5.20729e-13
6.25566e-14
5.10419e-13
6.82532e-14
4.99398e-13
7.30658e-14
4.87804e-13
7.69861e-14
4.7577e-13
8.00264e-14
4.63422e-13
8.22169e-14
4.50879e-13
8.36012e-14
4.38252e-13
8.42336e-14
4.25641e-13
8.41761e-14
4.13136e-13
8.34961e-14
4.00816e-13
8.2264e-14
3.88753e-13
8.05521e-14
3.77006e-13
7.84329e-14
3.65624e-13
7.59785e-14
3.54649e-13
7.32591e-14
3.44112e-13
7.03434e-14
3.34037e-13
6.72972e-14
3.24439e-13
6.41839e-14
3.15325e-13
6.10638e-14
3.06698e-13
5.7994e-14
2.98554e-13
5.50283e-14
2.90884e-13
5.22166e-14
2.83674e-13
4.96048e-14
2.76907e-13
4.72335e-14
2.70562e-13
4.51373e-14
2.64615e-13
4.33431e-14
2.59037e-13
4.18685e-14
2.53788e-13
4.07198e-14
2.48823e-13
3.98894e-14
2.44076e-13
3.93596e-14
3.91213e-14
2.69378e-13
1.09393e-14
2.75972e-13
2.79491e-14
2.84882e-13
3.94853e-14
2.94808e-13
4.56508e-14
3.04845e-13
4.70514e-14
3.14472e-13
4.4527e-14
3.23471e-13
3.89769e-14
3.31837e-13
3.12466e-14
3.3969e-13
2.20664e-14
3.4721e-13
1.20299e-14
3.54594e-13
1.59863e-15
3.62025e-13
-8.88048e-15
3.69662e-13
-1.9153e-14
3.7763e-13
-2.90349e-14
3.8602e-13
-3.83931e-14
3.94893e-13
-4.71293e-14
4.04277e-13
-5.5168e-14
4.14178e-13
-6.2447e-14
4.24574e-13
-6.89111e-14
4.35425e-13
-7.45076e-14
4.46671e-13
-7.91845e-14
4.58234e-13
-8.28886e-14
4.70022e-13
-8.55664e-14
4.81926e-13
-8.71651e-14
4.93825e-13
-8.76344e-14
5.05586e-13
-8.69294e-14
5.17064e-13
-8.50144e-14
5.28106e-13
-8.1867e-14
5.3855e-13
-7.74838e-14
5.48235e-13
-7.1885e-14
5.57001e-13
-6.51208e-14
5.64697e-13
-5.72742e-14
5.71192e-13
-4.84629e-14
5.76376e-13
-3.88345e-14
5.80169e-13
-2.85586e-14
5.82517e-13
-1.78141e-14
5.83393e-13
-6.77832e-15
5.82784e-13
4.37832e-15
5.80698e-13
1.54904e-14
5.77159e-13
2.63932e-14
5.72211e-13
3.69197e-14
5.65925e-13
4.69049e-14
5.58397e-13
5.61959e-14
5.49743e-13
6.46624e-14
5.40095e-13
7.22045e-14
5.29593e-13
7.87548e-14
5.18381e-13
8.42783e-14
5.06598e-13
8.87682e-14
4.94382e-13
9.22424e-14
4.81861e-13
9.4738e-14
4.69155e-13
9.63076e-14
4.56374e-13
9.70149e-14
4.43618e-13
9.6932e-14
4.30977e-13
9.61363e-14
4.18533e-13
9.47086e-14
4.06354e-13
9.27312e-14
3.945e-13
9.02866e-14
3.83022e-13
8.74564e-14
3.71961e-13
8.43202e-14
3.61349e-13
8.09554e-14
3.5121e-13
7.74363e-14
3.4156e-13
7.38337e-14
3.32409e-13
7.0215e-14
3.23759e-13
6.66438e-14
3.15608e-13
6.31794e-14
3.07948e-13
5.98769e-14
3.00766e-13
5.67868e-14
2.94045e-13
5.39539e-14
2.87765e-13
5.14173e-14
2.819e-13
4.92088e-14
2.76416e-13
4.73525e-14
2.71272e-13
4.58633e-14
2.66417e-13
4.47447e-14
2.61781e-13
4.39959e-14
4.36409e-14
2.6911e-13
8.49604e-15
2.75215e-13
2.18439e-14
2.83728e-13
3.09721e-14
2.93558e-13
3.58213e-14
3.03881e-13
3.67286e-14
3.14157e-13
3.42509e-14
3.24094e-13
2.90403e-14
3.33587e-13
2.17534e-14
3.42661e-13
1.29923e-14
3.51416e-13
3.27469e-15
3.59988e-13
-6.97374e-15
3.68522e-13
-1.74144e-14
3.77153e-13
-2.77833e-14
3.85995e-13
-3.78772e-14
3.9514e-13
-4.75385e-14
4.04654e-13
-5.66432e-14
4.14576e-13
-6.50902e-14
4.24922e-13
-7.27927e-14
4.35684e-13
-7.96728e-14
4.46833e-13
-8.56569e-14
4.58322e-13
-9.06732e-14
4.70084e-13
-9.46507e-14
4.82036e-13
-9.7519e-14
4.94081e-13
-9.92095e-14
5.06103e-13
-9.96571e-14
5.17977e-13
-9.88032e-14
5.29562e-13
-9.65991e-14
5.40706e-13
-9.30114e-14
5.5125e-13
-8.80271e-14
5.61026e-13
-8.16615e-14
5.6987e-13
-7.39651e-14
5.77627e-13
-6.50303e-14
5.84157e-13
-5.49935e-14
5.89354e-13
-4.40309e-14
5.9314e-13
-3.23455e-14
5.95475e-13
-2.01487e-14
5.96338e-13
-7.64153e-15
5.95725e-13
4.99138e-15
5.9364e-13
1.75753e-14
5.90101e-13
2.99326e-14
5.85145e-13
4.18755e-14
5.7884e-13
5.32102e-14
5.71282e-13
6.37534e-14
5.62595e-13
7.33503e-14
5.52914e-13
8.18846e-14
5.42388e-13
8.92811e-14
5.31163e-13
9.55035e-14
5.19382e-13
1.00549e-13
5.07182e-13
1.04442e-13
4.94691e-13
1.07229e-13
4.82028e-13
1.08971e-13
4.693e-13
1.09742e-13
4.56608e-13
1.09624e-13
4.44039e-13
1.08705e-13
4.31673e-13
1.07075e-13
4.19578e-13
1.04827e-13
4.07813e-13
1.02052e-13
3.96428e-13
9.88411e-14
3.85464e-13
9.52838e-14
3.74954e-13
9.14656e-14
3.64922e-13
8.74688e-14
3.55384e-13
8.33718e-14
3.4635e-13
7.92488e-14
3.37824e-13
7.51695e-14
3.29804e-13
7.1199e-14
3.22284e-13
6.73977e-14
3.1525e-13
6.38205e-14
3.08686e-13
6.05174e-14
3.02572e-13
5.75321e-14
2.96878e-13
5.49023e-14
2.91571e-13
5.26594e-14
2.86607e-13
5.08274e-14
2.81931e-13
4.9421e-14
2.77471e-13
4.84556e-14
4.79863e-14
2.6889e-13
6.27291e-15
2.74551e-13
1.61825e-14
2.82624e-13
2.28997e-14
2.92186e-13
2.62588e-14
3.02504e-13
2.64109e-14
3.13052e-13
2.37027e-14
3.23502e-13
1.85899e-14
3.33689e-13
1.15668e-14
3.43566e-13
3.11485e-15
3.5317e-13
-6.32889e-15
3.62582e-13
-1.63862e-14
3.71908e-13
-2.674e-14
3.81255e-13
-3.71303e-14
3.90723e-13
-4.73453e-14
4.00397e-13
-5.72121e-14
4.10341e-13
-6.65875e-14
4.206e-13
-7.53491e-14
4.31196e-13
-8.3389e-14
4.42132e-13
-9.06081e-14
4.53388e-13
-9.69127e-14
4.64926e-13
-1.02212e-13
4.76692e-13
-1.06417e-13
4.88613e-13
-1.09439e-13
5.00599e-13
-1.11195e-13
5.12546e-13
-1.11604e-13
5.24335e-13
-1.10593e-13
5.35835e-13
-1.08099e-13
5.46898e-13
-1.04074e-13
5.57366e-13
-9.8495e-14
5.67071e-13
-9.13672e-14
5.75845e-13
-8.27386e-14
5.83523e-13
-7.27086e-14
5.89965e-13
-6.14351e-14
5.95062e-13
-4.91286e-14
5.98753e-13
-3.60357e-14
6.01011e-13
-2.24071e-14
6.01837e-13
-8.46738e-15
6.01234e-13
5.59415e-15
5.99204e-13
1.96059e-14
5.95748e-13
3.33879e-14
5.90891e-13
4.67326e-14
5.84691e-13
5.94106e-14
5.77244e-13
7.12e-14
5.68678e-13
8.19161e-14
5.59138e-13
9.14252e-14
5.48773e-13
9.96459e-14
5.37733e-13
1.06543e-13
5.26161e-13
1.12121e-13
5.14191e-13
1.16412e-13
5.01947e-13
1.19472e-13
4.89545e-13
1.21373e-13
4.7709e-13
1.22198e-13
4.64675e-13
1.22038e-13
4.52389e-13
1.20992e-13
4.40306e-13
1.19158e-13
4.28495e-13
1.16638e-13
4.17013e-13
1.13534e-13
4.05909e-13
1.09945e-13
3.95223e-13
1.05969e-13
3.84988e-13
1.01701e-13
3.75228e-13
9.72292e-14
3.65959e-13
9.26405e-14
3.57192e-13
8.80155e-14
3.48932e-13
8.34302e-14
3.41176e-13
7.89551e-14
3.33918e-13
7.46558e-14
3.27146e-13
7.05924e-14
3.20844e-13
6.68196e-14
3.14989e-13
6.33866e-14
3.09554e-13
6.03374e-14
3.04503e-13
5.77108e-14
2.9979e-13
5.55401e-14
2.9536e-13
5.38513e-14
2.9114e-13
5.26748e-14
5.20947e-14
2.68698e-13
4.24158e-15
2.73942e-13
1.09388e-14
2.8154e-13
1.53013e-14
2.9071e-13
1.70889e-14
3.00802e-13
1.63191e-14
3.11323e-13
1.31815e-14
3.21936e-13
7.97646e-15
3.32441e-13
1.06235e-15
3.42743e-13
-7.18778e-15
3.5283e-13
-1.64158e-14
3.6274e-13
-2.62956e-14
3.7254e-13
-3.65401e-14
3.82312e-13
-4.69021e-14
3.92137e-13
-5.71704e-14
4.02089e-13
-6.71643e-14
4.12229e-13
-7.67273e-14
4.226e-13
-8.57206e-14
4.3323e-13
-9.40183e-14
4.44124e-13
-1.01503e-13
4.55273e-13
-1.08062e-13
4.66647e-13
-1.13586e-13
4.78199e-13
-1.17969e-13
4.89867e-13
-1.21107e-13
5.0157e-13
-1.22899e-13
5.13215e-13
-1.2325e-13
5.24694e-13
-1.22072e-13
5.35885e-13
-1.19289e-13
5.46649e-13
-1.14839e-13
5.56835e-13
-1.08681e-13
5.66277e-13
-1.00809e-13
5.748e-13
-9.12618e-14
5.82235e-13
-8.01431e-14
5.88433e-13
-6.76333e-14
5.93291e-13
-5.39872e-14
5.96765e-13
-3.95097e-14
5.98864e-13
-2.45057e-14
5.99618e-13
-9.22151e-15
5.99047e-13
6.16524e-15
5.97143e-13
2.15103e-14
5.93882e-13
3.66489e-14
5.89258e-13
5.13565e-14
5.83314e-13
6.53547e-14
5.76145e-13
7.83684e-14
5.67886e-13
9.01758e-14
5.58685e-13
1.00626e-13
5.48697e-13
1.09634e-13
5.38068e-13
1.17172e-13
5.26939e-13
1.23251e-13
5.15435e-13
1.27916e-13
5.03676e-13
1.31232e-13
4.9177e-13
1.3328e-13
4.79815e-13
1.34153e-13
4.67903e-13
1.33951e-13
4.56115e-13
1.32779e-13
4.44525e-13
1.30747e-13
4.33199e-13
1.27964e-13
4.22194e-13
1.2454e-13
4.11556e-13
1.20583e-13
4.01326e-13
1.16199e-13
3.91535e-13
1.11491e-13
3.82208e-13
1.06556e-13
3.73361e-13
1.01487e-13
3.65005e-13
9.63714e-14
3.57144e-13
9.12907e-14
3.49778e-13
8.63215e-14
3.429e-13
8.15343e-14
3.36498e-13
7.69944e-14
3.30555e-13
7.27616e-14
3.25051e-13
6.88907e-14
3.19957e-13
6.54319e-14
3.15236e-13
6.24317e-14
3.10843e-13
5.99327e-14
3.06724e-13
5.7971e-14
3.02807e-13
5.65918e-14
5.59056e-14
2.68522e-13
2.38587e-15
2.7336e-13
6.10081e-15
2.80454e-13
8.20777e-15
2.89133e-13
8.40996e-15
2.98825e-13
6.62676e-15
3.09079e-13
2.92802e-15
3.19564e-13
-2.50848e-15
3.30063e-13
-9.43697e-15
3.40454e-13
-1.7579e-14
3.50688e-13
-2.66497e-14
3.60768e-13
-3.63756e-14
3.70731e-13
-4.65035e-14
3.80634e-13
-5.68049e-14
3.90539e-13
-6.70755e-14
4.00508e-13
-7.7133e-14
4.10593e-13
-8.68126e-14
4.20836e-13
-9.59636e-14
4.31263e-13
-1.04445e-13
4.41885e-13
-1.12124e-13
4.52694e-13
-1.18871e-13
4.63668e-13
-1.2456e-13
4.74766e-13
-1.29067e-13
4.85934e-13
-1.32275e-13
4.97102e-13
-1.34067e-13
5.08187e-13
-1.34334e-13
5.19093e-13
-1.32978e-13
5.2971e-13
-1.29907e-13
5.39916e-13
-1.25045e-13
5.49571e-13
-1.18335e-13
5.58513e-13
-1.09751e-13
5.66567e-13
-9.93155e-14
5.73552e-13
-8.71283e-14
5.79313e-13
-7.33941e-14
5.83749e-13
-5.84233e-14
5.86846e-13
-4.26066e-14
5.88668e-13
-2.63285e-14
5.89304e-13
-9.85684e-15
5.88795e-13
6.67362e-15
5.87119e-13
2.3187e-14
5.84201e-13
3.95663e-14
5.79985e-13
5.55732e-14
5.74485e-13
7.08539e-14
5.678e-13
8.50542e-14
5.60069e-13
9.79067e-14
5.51449e-13
1.09245e-13
5.42093e-13
1.1899e-13
5.32141e-13
1.27123e-13
5.21723e-13
1.3367e-13
5.10953e-13
1.38685e-13
4.99941e-13
1.42244e-13
4.88783e-13
1.44437e-13
4.77574e-13
1.45362e-13
4.66397e-13
1.45128e-13
4.55331e-13
1.43845e-13
4.44448e-13
1.41631e-13
4.3381e-13
1.38602e-13
4.23473e-13
1.34877e-13
4.13484e-13
1.30571e-13
4.03884e-13
1.258e-13
3.94702e-13
1.20673e-13
3.85964e-13
1.15295e-13
3.77686e-13
1.09765e-13
3.69879e-13
1.04178e-13
3.62548e-13
9.86221e-14
3.55691e-13
9.31782e-14
3.49303e-13
8.79223e-14
3.43373e-13
8.29246e-14
3.37885e-13
7.82501e-14
3.32816e-13
7.39592e-14
3.2814e-13
7.01082e-14
3.2382e-13
6.67511e-14
3.19814e-13
6.39393e-14
3.16066e-13
6.17188e-14
3.1251e-13
6.01476e-14
5.93615e-14
2.68355e-13
6.97377e-16
2.7279e-13
1.66642e-15
2.79348e-13
1.64922e-15
2.87454e-13
3.03799e-16
2.96606e-13
-2.52532e-15
3.06395e-13
-6.86046e-15
3.16507e-13
-1.26211e-14
3.26725e-13
-1.96541e-14
3.36907e-13
-2.77618e-14
3.46983e-13
-3.67257e-14
3.5693e-13
-4.63221e-14
3.66759e-13
-5.63328e-14
3.76506e-13
-6.65513e-14
3.86215e-13
-7.67845e-14
3.95934e-13
-8.68523e-14
4.05708e-13
-9.65865e-14
4.15572e-13
-1.05828e-13
4.2555e-13
-1.14424e-13
4.35653e-13
-1.22227e-13
4.45874e-13
-1.29093e-13
4.56195e-13
-1.3488e-13
4.6658e-13
-1.39452e-13
4.76978e-13
-1.42673e-13
4.87328e-13
-1.44417e-13
4.97558e-13
-1.44564e-13
5.07583e-13
-1.43004e-13
5.17314e-13
-1.39637e-13
5.26646e-13
-1.34377e-13
5.3546e-13
-1.27149e-13
5.4361e-13
-1.17901e-13
5.50921e-13
-1.06626e-13
5.572e-13
-9.34075e-14
5.62276e-13
-7.84708e-14
5.6605e-13
-6.21968e-14
5.68548e-13
-4.51046e-14
5.69932e-13
-2.77124e-14
5.70382e-13
-1.0307e-14
5.69983e-13
7.07216e-15
5.68681e-13
2.44896e-14
5.66314e-13
4.19326e-14
5.62733e-13
5.91545e-14
5.57917e-13
7.56706e-14
5.51967e-13
9.10036e-14
5.45041e-13
1.04833e-13
5.373e-13
1.16987e-13
5.28887e-13
1.27403e-13
5.19929e-13
1.36082e-13
5.10534e-13
1.43064e-13
5.00804e-13
1.48416e-13
4.90829e-13
1.52219e-13
4.80697e-13
1.54568e-13
4.70494e-13
1.55566e-13
4.60297e-13
1.55324e-13
4.50183e-13
1.53959e-13
4.40221e-13
1.51592e-13
4.30474e-13
1.48349e-13
4.20998e-13
1.44353e-13
4.11839e-13
1.3973e-13
4.03037e-13
1.34602e-13
3.94625e-13
1.29085e-13
3.86626e-13
1.23293e-13
3.79058e-13
1.17333e-13
3.71932e-13
1.11305e-13
3.65252e-13
1.05302e-13
3.59019e-13
9.94116e-14
3.53226e-13
9.37149e-14
3.47864e-13
8.82868e-14
3.42917e-13
8.31972e-14
3.38364e-13
7.85119e-14
3.34179e-13
7.42932e-14
3.30328e-13
7.06021e-14
3.26769e-13
6.74981e-14
3.23452e-13
6.50363e-14
3.20312e-13
6.32868e-14
6.24079e-14
2.68191e-13
-8.27396e-16
2.72218e-13
-2.3598e-15
2.78211e-13
-4.34402e-15
2.85674e-13
-7.15944e-15
2.94169e-13
-1.10199e-14
3.03328e-13
-1.60198e-14
3.12863e-13
-2.21561e-14
3.2256e-13
-2.93513e-14
3.32275e-13
-3.74764e-14
3.4192e-13
-4.63708e-14
3.51455e-13
-5.58567e-14
3.60872e-13
-6.57502e-14
3.70188e-13
-7.58676e-14
3.79433e-13
-8.60292e-14
3.88641e-13
-9.60606e-14
3.97848e-13
-1.05793e-13
4.0708e-13
-1.1506e-13
4.16358e-13
-1.23701e-13
4.25688e-13
-1.31557e-13
4.35065e-13
-1.38469e-13
4.44467e-13
-1.44283e-13