/*--------------------------------*- C++ -*----------------------------------*\
  =========                 |
  \\      /  F ield         | OpenFOAM: The Open Source CFD Toolbox
   \\    /   O peration     | Website:  https://openfoam.org
    \\  /    A nd           | Version:  7
     \\/     M anipulation  |
\*---------------------------------------------------------------------------*/
FoamFile
{
    version     2.0;
    format      ascii;
    class       volVectorField;
    location    "5";
    object      U;
}
// * * * * * * * * * * * * * * * * * * * * * * * * * * * * * * * * * * * * * //

dimensions      [0 1 -1 0 0 0 0];

internalField   nonuniform List<vector> 
5625
(
(0.00069502 0.00014723 0)
(0.000593013 0.00012788 0)
(0.000428726 7.49108e-05 0)
(0.000311079 4.20719e-05 0)
(0.000242333 2.42369e-05 0)
(0.00019954 1.45103e-05 0)
(0.000171043 9.08421e-06 0)
(0.000151509 5.92407e-06 0)
(0.000137907 3.96735e-06 0)
(0.000128402 2.67357e-06 0)
(0.000121863 1.76567e-06 0)
(0.000117562 1.09626e-06 0)
(0.000115005 5.82907e-07 0)
(0.000113844 1.76987e-07 0)
(0.00011382 -1.51577e-07 0)
(0.000114739 -4.22184e-07 0)
(0.000116447 -6.47644e-07 0)
(0.000118819 -8.36627e-07 0)
(0.000121749 -9.94917e-07 0)
(0.000125147 -1.12642e-06 0)
(0.000128929 -1.23356e-06 0)
(0.000133021 -1.31789e-06 0)
(0.000137348 -1.3801e-06 0)
(0.000141839 -1.42058e-06 0)
(0.000146423 -1.43923e-06 0)
(0.00015103 -1.43602e-06 0)
(0.000155588 -1.41072e-06 0)
(0.000160027 -1.36346e-06 0)
(0.000164277 -1.29439e-06 0)
(0.00016827 -1.20426e-06 0)
(0.00017194 -1.09395e-06 0)
(0.000175227 -9.65113e-07 0)
(0.000178073 -8.19517e-07 0)
(0.000180431 -6.59687e-07 0)
(0.000182259 -4.88192e-07 0)
(0.000183526 -3.08172e-07 0)
(0.000184209 -1.22692e-07 0)
(0.000184297 6.48703e-08 0)
(0.000183786 2.51289e-07 0)
(0.000182686 4.33332e-07 0)
(0.000181014 6.07944e-07 0)
(0.000178797 7.72399e-07 0)
(0.000176072 9.24128e-07 0)
(0.000172879 1.06125e-06 0)
(0.000169268 1.18195e-06 0)
(0.000165291 1.2854e-06 0)
(0.000161003 1.3707e-06 0)
(0.00015646 1.43808e-06 0)
(0.00015172 1.48746e-06 0)
(0.000146838 1.51996e-06 0)
(0.000141866 1.5361e-06 0)
(0.000136854 1.53761e-06 0)
(0.000131847 1.5254e-06 0)
(0.000126886 1.50148e-06 0)
(0.000122008 1.46694e-06 0)
(0.000117244 1.42386e-06 0)
(0.000112621 1.37338e-06 0)
(0.000108159 1.31752e-06 0)
(0.000103875 1.25739e-06 0)
(9.97812e-05 1.19493e-06 0)
(9.58832e-05 1.13127e-06 0)
(9.21832e-05 1.06827e-06 0)
(8.86777e-05 1.00723e-06 0)
(8.53587e-05 9.50148e-07 0)
(8.22119e-05 8.98754e-07 0)
(7.9217e-05 8.55718e-07 0)
(7.63461e-05 8.24057e-07 0)
(7.35614e-05 8.08653e-07 0)
(7.08109e-05 8.16907e-07 0)
(6.80206e-05 8.61803e-07 0)
(6.50917e-05 9.64442e-07 0)
(6.19042e-05 1.16527e-06 0)
(5.81291e-05 1.56143e-06 0)
(5.27004e-05 2.30405e-06 0)
(4.59921e-05 3.22865e-06 0)
(0.000985635 0.000289735 0)
(0.000967928 0.000304619 0)
(0.000841607 0.000216257 0)
(0.000709546 0.00014487 0)
(0.000605295 9.7055e-05 0)
(0.000526223 6.5891e-05 0)
(0.000466827 4.55566e-05 0)
(0.000422709 3.19766e-05 0)
(0.000390268 2.25688e-05 0)
(0.00036676 1.57907e-05 0)
(0.000350185 1.07272e-05 0)
(0.000339093 6.8239e-06 0)
(0.000332414 3.73465e-06 0)
(0.000329343 1.23678e-06 0)
(0.000329264 -8.17298e-07 0)
(0.000331691 -2.52752e-06 0)
(0.000336232 -3.96276e-06 0)
(0.000342561 -5.17064e-06 0)
(0.000350402 -6.18418e-06 0)
(0.000359507 -7.02565e-06 0)
(0.000369655 -7.70992e-06 0)
(0.000380636 -8.24604e-06 0)
(0.000392252 -8.6394e-06 0)
(0.000404307 -8.89232e-06 0)
(0.000416608 -9.0059e-06 0)
(0.000428965 -8.98004e-06 0)
(0.000441185 -8.81527e-06 0)
(0.000453078 -8.51235e-06 0)
(0.000464458 -8.0742e-06 0)
(0.000475142 -7.50503e-06 0)
(0.000484957 -6.81215e-06 0)
(0.00049374 -6.00469e-06 0)
(0.000501343 -5.09516e-06 0)
(0.000507637 -4.09769e-06 0)
(0.000512514 -3.02921e-06 0)
(0.00051589 -1.90758e-06 0)
(0.000517704 -7.52373e-07 0)
(0.000517924 4.16834e-07 0)
(0.000516545 1.58001e-06 0)
(0.000513586 2.71785e-06 0)
(0.000509094 3.812e-06 0)
(0.000503138 4.84541e-06 0)
(0.00049581 5.80338e-06 0)
(0.000487219 6.67294e-06 0)
(0.000477493 7.44472e-06 0)
(0.000466767 8.11106e-06 0)
(0.000455187 8.66863e-06 0)
(0.000442902 9.11527e-06 0)
(0.000430061 9.45325e-06 0)
(0.000416811 9.68509e-06 0)
(0.000403291 9.8174e-06 0)
(0.000389634 9.856e-06 0)
(0.000375963 9.81022e-06 0)
(0.000362388 9.68781e-06 0)
(0.000349009 9.4994e-06 0)
(0.000335911 9.25356e-06 0)
(0.000323166 8.96122e-06 0)
(0.000310834 8.63108e-06 0)
(0.000298962 8.27386e-06 0)
(0.000287581 7.89818e-06 0)
(0.000276712 7.51452e-06 0)
(0.000266362 7.13169e-06 0)
(0.000256524 6.76043e-06 0)
(0.000247178 6.41064e-06 0)
(0.000238289 6.09468e-06 0)
(0.000229807 5.82562e-06 0)
(0.000221664 5.62066e-06 0)
(0.000213769 5.50112e-06 0)
(0.000206009 5.49781e-06 0)
(0.000198231 5.65454e-06 0)
(0.000190259 6.03481e-06 0)
(0.000181936 6.73537e-06 0)
(0.00017291 7.93835e-06 0)
(0.000161952 9.83878e-06 0)
(0.000150352 1.18628e-05 0)
(0.00102836 0.000252793 0)
(0.00105583 0.000355267 0)
(0.00100835 0.0003156 0)
(0.000926065 0.000249751 0)
(0.000840259 0.000189209 0)
(0.000763199 0.000140822 0)
(0.000698715 0.000104145 0)
(0.000647086 7.66819e-05 0)
(0.000607075 5.59549e-05 0)
(0.000577034 4.00553e-05 0)
(0.00055539 2.76254e-05 0)
(0.000540786 1.77228e-05 0)
(0.000532097 9.69527e-06 0)
(0.000528402 3.0891e-06 0)
(0.000528948 -2.41408e-06 0)
(0.000533112 -7.03972e-06 0)
(0.00054037 -1.09479e-05 0)
(0.000550272 -1.42524e-05 0)
(0.000562423 -1.70332e-05 0)
(0.000576468 -1.93455e-05 0)
(0.000592077 -2.12259e-05 0)
(0.00060894 -2.2698e-05 0)
(0.000626755 -2.37749e-05 0)
(0.000645228 -2.44637e-05 0)
(0.000664065 -2.47669e-05 0)
(0.000682975 -2.4686e-05 0)
(0.000701665 -2.42221e-05 0)
(0.000719848 -2.33797e-05 0)
(0.000737237 -2.21659e-05 0)
(0.000753556 -2.05948e-05 0)
(0.000768541 -1.86852e-05 0)
(0.000781945 -1.64642e-05 0)
(0.000793544 -1.39644e-05 0)
(0.000803142 -1.12259e-05 0)
(0.000810575 -8.29307e-06 0)
(0.000815714 -5.21586e-06 0)
(0.000818469 -2.04584e-06 0)
(0.00081879 1.16298e-06 0)
(0.000816666 4.35723e-06 0)
(0.000812127 7.48439e-06 0)
(0.000805242 1.04947e-05 0)
(0.000796115 1.33425e-05 0)
(0.000784883 1.59869e-05 0)
(0.000771712 1.83941e-05 0)
(0.000756789 2.05362e-05 0)
(0.000740324 2.23947e-05 0)
(0.000722533 2.39567e-05 0)
(0.000703643 2.52194e-05 0)
(0.000683879 2.61841e-05 0)
(0.000663463 2.68614e-05 0)
(0.000642609 2.72637e-05 0)
(0.000621519 2.74111e-05 0)
(0.000600379 2.73233e-05 0)
(0.00057936 2.7026e-05 0)
(0.000558613 2.65428e-05 0)
(0.000538272 2.59017e-05 0)
(0.000518448 2.51276e-05 0)
(0.000499235 2.42489e-05 0)
(0.000480705 2.32904e-05 0)
(0.000462912 2.228e-05 0)
(0.000445887 2.12425e-05 0)
(0.000429645 2.02055e-05 0)
(0.00041418 1.91947e-05 0)
(0.000399467 1.82395e-05 0)
(0.000385458 1.73692e-05 0)
(0.000372087 1.66186e-05 0)
(0.000359263 1.60261e-05 0)
(0.000346874 1.56396e-05 0)
(0.00033478 1.55169e-05 0)
(0.000322814 1.57317e-05 0)
(0.000310804 1.63711e-05 0)
(0.000298661 1.75348e-05 0)
(0.000286162 1.93336e-05 0)
(0.000272061 2.17302e-05 0)
(0.000257831 2.38208e-05 0)
(0.00102604 0.000195873 0)
(0.0010654 0.000342473 0)
(0.00106667 0.000355464 0)
(0.00103207 0.000315351 0)
(0.000979298 0.000260518 0)
(0.000922283 0.000207258 0)
(0.000868787 0.000161199 0)
(0.00082246 0.000123177 0)
(0.000784559 9.22915e-05 0)
(0.000755093 6.7243e-05 0)
(0.0007335 4.68159e-05 0)
(0.000719011 3.00102e-05 0)
(0.000710824 1.6048e-05 0)
(0.00070818 4.33999e-06 0)
(0.000710393 -5.55481e-06 0)
(0.000716849 -1.39636e-05 0)
(0.000727001 -2.11276e-05 0)
(0.000740359 -2.72223e-05 0)
(0.000756471 -3.23738e-05 0)
(0.000774921 -3.66698e-05 0)
(0.000795314 -4.01694e-05 0)
(0.000817267 -4.29093e-05 0)
(0.000840407 -4.49113e-05 0)
(0.000864362 -4.61852e-05 0)
(0.000888763 -4.67354e-05 0)
(0.000913236 -4.6563e-05 0)
(0.00093741 -4.56713e-05 0)
(0.000960915 -4.40674e-05 0)
(0.000983385 -4.1767e-05 0)
(0.00100446 -3.87946e-05 0)
(0.00102381 -3.51882e-05 0)
(0.00104112 -3.09965e-05 0)
(0.00105609 -2.6283e-05 0)
(0.00106847 -2.11209e-05 0)
(0.00107805 -1.55955e-05 0)
(0.00108467 -9.79802e-06 0)
(0.00108821 -3.82653e-06 0)
(0.0010886 2.2196e-06 0)
(0.00108584 8.23983e-06 0)
(0.00107995 1.41367e-05 0)
(0.00107103 1.98173e-05 0)
(0.00105921 2.51958e-05 0)
(0.00104466 3.01964e-05 0)
(0.0010276 3.47542e-05 0)
(0.00100826 3.88188e-05 0)
(0.000986912 4.23521e-05 0)
(0.000963838 4.53332e-05 0)
(0.000939324 4.77519e-05 0)
(0.000913661 4.96147e-05 0)
(0.000887134 5.09354e-05 0)
(0.000860019 5.17421e-05 0)
(0.000832572 5.20658e-05 0)
(0.000805039 5.1949e-05 0)
(0.000777635 5.1433e-05 0)
(0.00075056 5.05674e-05 0)
(0.000723985 4.93987e-05 0)
(0.000698056 4.79788e-05 0)
(0.000672896 4.63552e-05 0)
(0.0006486 4.45796e-05 0)
(0.00062524 4.2699e-05 0)
(0.000602862 4.07642e-05 0)
(0.000581489 3.8822e-05 0)
(0.000561118 3.69233e-05 0)
(0.000541724 3.51175e-05 0)
(0.000523257 3.3459e-05 0)
(0.000505646 3.20039e-05 0)
(0.000488795 3.0816e-05 0)
(0.000472587 2.99644e-05 0)
(0.000456888 2.95284e-05 0)
(0.000441544 2.95925e-05 0)
(0.000426417 3.024e-05 0)
(0.000411491 3.15305e-05 0)
(0.000396623 3.34667e-05 0)
(0.000380439 3.58208e-05 0)
(0.000364381 3.7638e-05 0)
(0.00101844 0.000153778 0)
(0.00105615 0.000309015 0)
(0.00108077 0.000355346 0)
(0.00107907 0.000341803 0)
(0.00105687 0.000301377 0)
(0.00102411 0.000252616 0)
(0.000988324 0.000204663 0)
(0.000954316 0.000161282 0)
(0.00092482 0.000123525 0)
(0.000901147 9.12271e-05 0)
(0.000883726 6.37682e-05 0)
(0.000872493 4.04273e-05 0)
(0.000867124 2.05314e-05 0)
(0.000867172 3.50684e-06 0)
(0.000872147 -1.11116e-05 0)
(0.000881553 -2.36906e-05 0)
(0.000894908 -3.45117e-05 0)
(0.000911745 -4.37866e-05 0)
(0.000931619 -5.16696e-05 0)
(0.000954093 -5.82698e-05 0)
(0.000978745 -6.36595e-05 0)
(0.00100515 -6.78839e-05 0)
(0.0010329 -7.09667e-05 0)
(0.00106156 -7.29186e-05 0)
(0.00109071 -7.37409e-05 0)
(0.00111991 -7.3434e-05 0)
(0.00114874 -7.19998e-05 0)
(0.00117675 -6.94497e-05 0)
(0.00120352 -6.58059e-05 0)
(0.00122863 -6.11085e-05 0)
(0.00125166 -5.54143e-05 0)
(0.00127226 -4.88027e-05 0)
(0.00129007 -4.13703e-05 0)
(0.00130479 -3.32352e-05 0)
(0.00131619 -2.45284e-05 0)
(0.00132405 -1.53955e-05 0)
(0.00132824 -5.98785e-06 0)
(0.00132869 3.53737e-06 0)
(0.00132537 1.30244e-05 0)
(0.00131834 2.23201e-05 0)
(0.00130769 3.12792e-05 0)
(0.00129358 3.97675e-05 0)
(0.00127622 4.76649e-05 0)
(0.00125586 5.48709e-05 0)
(0.00123278 6.13036e-05 0)
(0.0012073 6.69062e-05 0)
(0.00117975 7.16411e-05 0)
(0.00115048 7.5497e-05 0)
(0.00111982 7.84776e-05 0)
(0.00108813 8.06106e-05 0)
(0.00105571 8.19323e-05 0)
(0.00102289 8.24983e-05 0)
(0.000989937 8.23666e-05 0)
(0.000957125 8.16091e-05 0)
(0.000924683 8.02955e-05 0)
(0.000892816 7.85052e-05 0)
(0.000861699 7.63122e-05 0)
(0.00083148 7.3797e-05 0)
(0.000802273 7.10337e-05 0)
(0.000774169 6.81013e-05 0)
(0.000747224 6.50725e-05 0)
(0.000721472 6.20244e-05 0)
(0.000696917 5.90297e-05 0)
(0.000673539 5.61659e-05 0)
(0.000651291 5.35086e-05 0)
(0.000630106 5.11395e-05 0)
(0.000609891 4.91409e-05 0)
(0.000590542 4.76013e-05 0)
(0.000571936 4.66084e-05 0)
(0.000553944 4.62472e-05 0)
(0.00053646 4.65794e-05 0)
(0.000519516 4.76198e-05 0)
(0.000502985 4.9289e-05 0)
(0.000485327 5.12799e-05 0)
(0.000467928 5.27407e-05 0)
(0.00101249 0.000123584 0)
(0.00104498 0.000271256 0)
(0.00107879 0.000334485 0)
(0.00109688 0.000341329 0)
(0.00109787 0.000316312 0)
(0.00108697 0.000276234 0)
(0.00106972 0.000231228 0)
(0.00105054 0.000186777 0)
(0.00103256 0.000145483 0)
(0.00101776 0.000108328 0)
(0.00100725 7.54478e-05 0)
(0.00100155 4.65885e-05 0)
(0.0010008 2.13473e-05 0)
(0.00100488 -7.02254e-07 0)
(0.00101356 -1.99526e-05 0)
(0.00102652 -3.67383e-05 0)
(0.00104339 -5.13314e-05 0)
(0.00106377 -6.3943e-05 0)
(0.00108727 -7.47304e-05 0)
(0.00111348 -8.38043e-05 0)
(0.00114196 -9.12374e-05 0)
(0.0011723 -9.70711e-05 0)
(0.00120404 -0.000101325 0)
(0.00123675 -0.000104001 0)
(0.00126995 -0.000105096 0)
(0.00130318 -0.000104601 0)
(0.00133594 -0.000102517 0)
(0.00136777 -9.8855e-05 0)
(0.00139817 -9.3646e-05 0)
(0.00142667 -8.69421e-05 0)
(0.00145281 -7.8826e-05 0)
(0.00147618 -6.9406e-05 0)
(0.00149639 -5.88229e-05 0)
(0.00151308 -4.72409e-05 0)
(0.00152599 -3.48497e-05 0)
(0.00153489 -2.18527e-05 0)
(0.00153963 -8.46722e-06 0)
(0.00154011 5.08695e-06 0)
(0.00153633 1.85878e-05 0)
(0.00152832 3.18201e-05 0)
(0.00151621 4.45775e-05 0)
(0.00150017 5.66692e-05 0)
(0.00148044 6.79257e-05 0)
(0.0014573 7.82015e-05 0)
(0.00143107 8.73831e-05 0)
(0.00140212 9.53853e-05 0)
(0.00137082 0.00010216 0)
(0.00133756 0.000107685 0)
(0.00130273 0.000111972 0)
(0.00126671 0.000115052 0)
(0.00122987 0.000116987 0)
(0.00119256 0.000117844 0)
(0.0011551 0.000117714 0)
(0.00111778 0.000116691 0)
(0.00108087 0.00011488 0)
(0.0010446 0.000112385 0)
(0.00100917 0.000109317 0)
(0.000974735 0.000105783 0)
(0.000941442 0.000101892 0)
(0.000909387 9.77493e-05 0)
(0.000878645 9.34614e-05 0)
(0.000849254 8.91289e-05 0)
(0.000821231 8.48564e-05 0)
(0.00079456 8.07427e-05 0)
(0.000769205 7.68915e-05 0)
(0.000745104 7.34024e-05 0)
(0.000722177 7.03788e-05 0)
(0.000700331 6.79193e-05 0)
(0.000679464 6.61187e-05 0)
(0.000659462 6.50535e-05 0)
(0.000640244 6.4768e-05 0)
(0.000621856 6.52416e-05 0)
(0.000604157 6.63552e-05 0)
(0.000585448 6.77929e-05 0)
(0.00056707 6.88573e-05 0)
(0.0010087 0.000100992 0)
(0.0010361 0.000234754 0)
(0.00107228 0.000303912 0)
(0.00110119 0.00032392 0)
(0.00111803 0.000311745 0)
(0.00112443 0.000281016 0)
(0.00112364 0.000241258 0)
(0.00111898 0.000198525 0)
(0.00111327 0.000156334 0)
(0.00110861 0.000116537 0)
(0.00110642 7.99651e-05 0)
(0.00110759 4.68684e-05 0)
(0.00111259 1.71895e-05 0)
(0.00112162 -9.27091e-06 0)
(0.00113467 -3.27599e-05 0)
(0.0011516 -5.3521e-05 0)
(0.0011722 -7.17683e-05 0)
(0.00119616 -8.76763e-05 0)
(0.00122315 -0.000101376 0)
(0.00125282 -0.000112959 0)
(0.00128475 -0.000122481 0)
(0.00131855 -0.000129966 0)
(0.00135376 -0.000135418 0)
(0.00138993 -0.000138825 0)
(0.00142657 -0.000140166 0)
(0.00146319 -0.000139424 0)
(0.00149927 -0.000136588 0)
(0.0015343 -0.00013167 0)
(0.00156774 -0.000124703 0)
(0.00159909 -0.000115755 0)
(0.00162784 -0.00010493 0)
(0.00165353 -9.23743e-05 0)
(0.00167574 -7.82704e-05 0)
(0.00169408 -6.28415e-05 0)
(0.00170825 -4.63364e-05 0)
(0.00171801 -2.903e-05 0)
(0.00172319 -1.12071e-05 0)
(0.0017237 6.83791e-06 0)
(0.00171952 2.48143e-05 0)
(0.0017107 4.24353e-05 0)
(0.00169737 5.9428e-05 0)
(0.00167972 7.55386e-05 0)
(0.001658 9.05394e-05 0)
(0.00163255 0.000104239 0)
(0.00160371 0.000116481 0)
(0.00157188 0.000127158 0)
(0.00153748 0.000136199 0)
(0.00150094 0.000143584 0)
(0.00146268 0.000149321 0)
(0.00142312 0.000153461 0)
(0.00138267 0.000156075 0)
(0.00134171 0.000157264 0)
(0.00130058 0.000157139 0)
(0.00125961 0.000155831 0)
(0.00121908 0.000153472 0)
(0.00117925 0.000150207 0)
(0.00114032 0.000146172 0)
(0.00110249 0.000141516 0)
(0.0010659 0.000136375 0)
(0.00103067 0.000130892 0)
(0.000996876 0.000125199 0)
(0.000964572 0.000119432 0)
(0.00093378 0.000113718 0)
(0.000904496 0.000108186 0)
(0.000876691 0.000102959 0)
(0.000850314 9.81613e-05 0)
(0.000825297 9.39079e-05 0)
(0.000801561 9.0311e-05 0)
(0.000779016 8.74661e-05 0)
(0.000757564 8.54477e-05 0)
(0.000737127 8.4286e-05 0)
(0.000717755 8.39479e-05 0)
(0.000699271 8.43033e-05 0)
(0.000679853 8.50721e-05 0)
(0.000660805 8.57158e-05 0)
(0.00100641 8.33413e-05 0)
(0.00102975 0.000201127 0)
(0.00106538 0.000269382 0)
(0.00109967 0.000296381 0)
(0.00112665 0.000293407 0)
(0.00114574 0.000270839 0)
(0.00115829 0.000236842 0)
(0.0011664 0.000197251 0)
(0.00117222 0.000155917 0)
(0.00117764 0.000115211 0)
(0.00118408 7.64838e-05 0)
(0.00119259 4.04232e-05 0)
(0.00120386 7.31473e-06 0)
(0.00121827 -2.27866e-05 0)
(0.00123601 -4.99446e-05 0)
(0.00125712 -7.42717e-05 0)
(0.0012815 -9.58892e-05 0)
(0.00130896 -0.000114903 0)
(0.00133926 -0.000131394 0)
(0.00137209 -0.000145411 0)
(0.0014071 -0.000156976 0)
(0.00144391 -0.000166084 0)
(0.00148208 -0.00017271 0)
(0.00152117 -0.000176816 0)
(0.00156069 -0.00017836 0)
(0.00160012 -0.000177304 0)
(0.00163895 -0.000173627 0)
(0.00167661 -0.000167326 0)
(0.00171257 -0.000158441 0)
(0.00174627 -0.000147048 0)
(0.00177717 -0.000133276 0)
(0.00180478 -0.000117306 0)
(0.00182863 -9.93743e-05 0)
(0.00184832 -7.97593e-05 0)
(0.00186352 -5.87847e-05 0)
(0.00187398 -3.67954e-05 0)
(0.00187952 -1.41575e-05 0)
(0.00188004 8.76178e-06 0)
(0.00187553 3.15924e-05 0)
(0.00186604 5.3975e-05 0)
(0.00185171 7.55627e-05 0)
(0.00183274 9.60324e-05 0)
(0.00180942 0.000115094 0)
(0.00178209 0.0001325 0)
(0.00175113 0.000148056 0)
(0.00171698 0.000161619 0)
(0.00168008 0.000173109 0)
(0.00164091 0.000182491 0)
(0.00159993 0.000189788 0)
(0.00155757 0.000195058 0)
(0.00151428 0.000198402 0)
(0.00147045 0.000199937 0)
(0.00142645 0.000199817 0)
(0.00138263 0.000198195 0)
(0.0013393 0.000195247 0)
(0.0012967 0.000191145 0)
(0.00125509 0.000186072 0)
(0.00121464 0.000180201 0)
(0.00117553 0.000173713 0)
(0.00113786 0.000166775 0)
(0.00110175 0.000159559 0)
(0.00106723 0.000152224 0)
(0.00103436 0.000144932 0)
(0.00100312 0.000137831 0)
(0.000973498 0.000131073 0)
(0.000945458 0.000124795 0)
(0.000918941 0.000119132 0)
(0.000893876 0.000114202 0)
(0.000870185 0.00011011 0)
(0.000847774 0.000106927 0)
(0.000826567 0.000104685 0)
(0.000806598 0.000103351 0)
(0.000787658 0.000102811 0)
(0.000767839 0.000102836 0)
(0.000748412 0.000103047 0)
(0.00100501 6.89158e-05 0)
(0.0010253 0.000170489 0)
(0.00105931 0.000233811 0)
(0.00109584 0.000263163 0)
(0.00112896 0.000265866 0)
(0.00115685 0.000249518 0)
(0.00117956 0.000220729 0)
(0.00119811 0.000184686 0)
(0.00121394 0.000145157 0)
(0.00122853 0.000104717 0)
(0.00124314 6.50289e-05 0)
(0.0012588 2.71056e-05 0)
(0.00127627 -8.47798e-06 0)
(0.00129606 -4.14275e-05 0)
(0.00131849 -7.16161e-05 0)
(0.00134371 -9.90088e-05 0)
(0.00137175 -0.000123612 0)
(0.00140251 -0.000145443 0)
(0.00143584 -0.00016451 0)
(0.00147148 -0.000180806 0)
(0.00150915 -0.000194302 0)
(0.0015485 -0.000204949 0)
(0.00158913 -0.000212684 0)
(0.0016306 -0.000217433 0)
(0.00167244 -0.000219122 0)
(0.00171414 -0.000217688 0)
(0.00175516 -0.000213084 0)
(0.00179494 -0.000205299 0)
(0.0018329 -0.000194362 0)
(0.00186848 -0.000180362 0)
(0.0019011 -0.000163446 0)
(0.00193023 -0.000143836 0)
(0.00195539 -0.000121817 0)
(0.00197615 -9.77406e-05 0)
(0.00199216 -7.20002e-05 0)
(0.00200315 -4.50288e-05 0)
(0.00200896 -1.72686e-05 0)
(0.00200949 1.08279e-05 0)
(0.00200472 3.88166e-05 0)
(0.00199471 6.62574e-05 0)
(0.00197959 9.27279e-05 0)
(0.0019596 0.000117829 0)
(0.00193502 0.000141201 0)
(0.00190622 0.000162538 0)
(0.00187362 0.000181596 0)
(0.00183767 0.000198207 0)
(0.00179887 0.000212267 0)
(0.00175771 0.000223746 0)
(0.00171467 0.000232667 0)
(0.00167022 0.000239114 0)
(0.00162482 0.000243202 0)
(0.00157889 0.000245091 0)
(0.0015328 0.000244953 0)
(0.00148692 0.000242991 0)
(0.00144156 0.000239405 0)
(0.00139699 0.000234417 0)
(0.00135346 0.000228234 0)
(0.00131116 0.000221078 0)
(0.00127026 0.000213154 0)
(0.00123089 0.000204673 0)
(0.00119316 0.00019583 0)
(0.00115712 0.000186824 0)
(0.00112282 0.000177834 0)
(0.00109026 0.000169044 0)
(0.00105944 0.000160617 0)
(0.00103032 0.000152718 0)
(0.00100286 0.000145491 0)
(0.000976988 0.000139069 0)
(0.000952636 0.000133562 0)
(0.000929712 0.000129051 0)
(0.000908131 0.000125573 0)
(0.000887913 0.000123112 0)
(0.000868818 0.000121583 0)
(0.00084889 0.000120822 0)
(0.000829367 0.000120592 0)
(0.00100412 5.66452e-05 0)
(0.0010221 0.000142498 0)
(0.00105419 0.00019862 0)
(0.00109123 0.000227068 0)
(0.00112776 0.000232495 0)
(0.00116144 0.000220315 0)
(0.00119148 0.000195671 0)
(0.0012181 0.000162937 0)
(0.00124209 0.000125549 0)
(0.00126448 8.60495e-05 0)
(0.0012863 4.62313e-05 0)
(0.00130843 7.30695e-06 0)
(0.00133162 -2.99359e-05 0)
(0.00135642 -6.50029e-05 0)
(0.00138322 -9.75938e-05 0)
(0.00141225 -0.000127527 0)
(0.00144363 -0.000154687 0)
(0.00147734 -0.000178992 0)
(0.0015133 -0.000200367 0)
(0.00155133 -0.000218732 0)
(0.00159119 -0.000233999 0)
(0.00163257 -0.000246063 0)
(0.00167512 -0.000254813 0)
(0.00171842 -0.00026013 0)
(0.00176201 -0.000261901 0)
(0.00180541 -0.000260024 0)
(0.00184807 -0.000254427 0)
(0.00188942 -0.000245074 0)
(0.00192889 -0.000231987 0)
(0.00196587 -0.00021525 0)
(0.00199978 -0.000195038 0)
(0.00203005 -0.000171603 0)
(0.00205618 -0.000145293 0)
(0.00207771 -0.000116528 0)
(0.00209429 -8.57936e-05 0)
(0.00210566 -5.36039e-05 0)
(0.00211165 -2.04944e-05 0)
(0.00211217 1.30083e-05 0)
(0.00210721 4.63775e-05 0)
(0.00209683 7.91002e-05 0)
(0.00208116 0.00011067 0)
(0.00206043 0.000140609 0)
(0.00203496 0.00016848 0)
(0.0020051 0.000193909 0)
(0.00197133 0.000216607 0)
(0.00193413 0.000236367 0)
(0.00189401 0.000253077 0)
(0.00185148 0.000266699 0)
(0.00180705 0.000277278 0)
(0.00176122 0.000284907 0)
(0.00171445 0.000289741 0)
(0.00166715 0.000291959 0)
(0.00161974 0.000291784 0)
(0.00157257 0.000289439 0)
(0.00152595 0.00028518 0)
(0.00148017 0.000279248 0)
(0.00143548 0.000271906 0)
(0.00139207 0.000263398 0)
(0.00135012 0.000253976 0)
(0.00130976 0.000243875 0)
(0.00127109 0.000233332 0)
(0.00123419 0.000222565 0)
(0.0011991 0.000211792 0)
(0.00116584 0.000201209 0)
(0.0011344 0.000191012 0)
(0.00110476 0.000181376 0)
(0.00107687 0.000172466 0)
(0.00105069 0.000164426 0)
(0.00102612 0.000157379 0)
(0.00100309 0.000151416 0)
(0.000981506 0.000146594 0)
(0.000961359 0.000142919 0)
(0.000942394 0.000140344 0)
(0.000922642 0.000138769 0)
(0.000903303 0.000138097 0)
(0.00100352 4.58875e-05 0)
(0.00101971 0.000116766 0)
(0.00104987 0.00016449 0)
(0.00108642 0.000189845 0)
(0.00112453 0.000195707 0)
(0.00116172 0.000185839 0)
(0.00119673 0.000164128 0)
(0.00122923 0.000134124 0)
(0.0012595 9.88088e-05 0)
(0.00128814 6.05407e-05 0)
(0.00131591 2.11029e-05 0)
(0.00134353 -1.82045e-05 0)
(0.00137165 -5.64596e-05 0)
(0.00140081 -9.30204e-05 0)
(0.00143141 -0.000127442 0)
(0.00146374 -0.000159411 0)
(0.00149796 -0.000188697 0)
(0.00153413 -0.000215114 0)
(0.00157222 -0.0002385 0)
(0.0016121 -0.000258697 0)
(0.0016536 -0.000275545 0)
(0.00169644 -0.000288881 0)
(0.00174032 -0.000298533 0)
(0.00178485 -0.000304333 0)
(0.0018296 -0.000306118 0)
(0.00187409 -0.000303746 0)
(0.00191781 -0.000297103 0)
(0.00196018 -0.000286127 0)
(0.00200061 -0.000270817 0)
(0.00203851 -0.00025126 0)
(0.00207325 -0.000227634 0)
(0.00210424 -0.000200238 0)
(0.00213097 -0.000169475 0)
(0.00215295 -0.000135855 0)
(0.00216984 -9.99528e-05 0)
(0.0021814 -6.23888e-05 0)
(0.00218746 -2.37782e-05 0)
(0.00218796 1.52675e-05 0)
(0.0021829 5.41592e-05 0)
(0.00217232 9.23052e-05 0)
(0.00215635 0.000129122 0)
(0.00213521 0.00016404 0)
(0.00210921 0.000196536 0)
(0.00207875 0.000226164 0)
(0.00204431 0.000252576 0)
(0.0020064 0.000275541 0)
(0.00196555 0.000294924 0)
(0.00192231 0.000310703 0)
(0.00187718 0.000322925 0)
(0.00183069 0.000331724 0)
(0.00178328 0.000337271 0)
(0.00173539 0.000339795 0)
(0.00168742 0.000339538 0)
(0.00163972 0.000336782 0)
(0.00159262 0.0003318 0)
(0.00154639 0.000324892 0)
(0.00150127 0.00031634 0)
(0.00145748 0.00030644 0)
(0.00141519 0.000295466 0)
(0.00137453 0.000283699 0)
(0.0013356 0.000271395 0)
(0.00129848 0.000258812 0)
(0.00126322 0.000246185 0)
(0.00122985 0.000233744 0)
(0.00119835 0.000221697 0)
(0.00116872 0.000210246 0)
(0.0011409 0.000199567 0)
(0.00111485 0.000189822 0)
(0.0010905 0.000181147 0)
(0.00106774 0.000173653 0)
(0.00104649 0.000167416 0)
(0.00102672 0.000162476 0)
(0.00100816 0.000158823 0)
(0.000988861 0.000156426 0)
(0.000969979 0.000155312 0)
(0.00100309 3.62599e-05 0)
(0.00101783 9.2984e-05 0)
(0.00104612 0.000131758 0)
(0.00108159 0.00015261 0)
(0.00112003 0.00015722 0)
(0.00115902 0.000148129 0)
(0.00119709 0.000128195 0)
(0.00123355 0.00010021 0)
(0.0012683 6.66674e-05 0)
(0.00130162 2.96596e-05 0)
(0.00133398 -9.13666e-06 0)
(0.00136592 -4.84206e-05 0)
(0.00139799 -8.72071e-05 0)
(0.00143065 -0.000124758 0)
(0.00146431 -0.00016052 0)
(0.00149925 -0.000194069 0)
(0.00153567 -0.000225072 0)
(0.00157366 -0.000253246 0)
(0.00161326 -0.000278339 0)
(0.00165438 -0.000300116 0)
(0.00169688 -0.000318343 0)
(0.00174054 -0.000332788 0)
(0.00178509 -0.000343221 0)
(0.00183019 -0.000349412 0)
(0.00187542 -0.000351148 0)
(0.00192036 -0.000348233 0)
(0.00196448 -0.000340515 0)
(0.00200724 -0.000327886 0)
(0.00204806 -0.000310323 0)
(0.00208631 -0.000287891 0)
(0.00212138 -0.000260785 0)
(0.00215264 -0.00022933 0)
(0.00217954 -0.000194006 0)
(0.00220161 -0.00015541 0)
(0.00221851 -0.000114241 0)
(0.00223002 -7.1219e-05 0)
(0.00223602 -2.70598e-05 0)
(0.00223649 1.75707e-05 0)
(0.00223143 6.20212e-05 0)
(0.00222085 0.000105648 0)
(0.00220488 0.000147782 0)
(0.00218369 0.000187756 0)
(0.00215759 0.000224944 0)
(0.00212701 0.000258816 0)
(0.00209244 0.000288969 0)
(0.00205441 0.000315131 0)
(0.0020135 0.000337173 0)
(0.00197023 0.000355067 0)
(0.00192514 0.0003689 0)
(0.00187873 0.000378816 0)
(0.00183146 0.000385041 0)
(0.00178375 0.00038782 0)
(0.00173601 0.000387454 0)
(0.00168856 0.000384241 0)
(0.00164174 0.000378515 0)
(0.00159581 0.000370592 0)
(0.00155103 0.000360809 0)
(0.00150758 0.000349482 0)
(0.00146564 0.000336935 0)
(0.00142535 0.000323465 0)
(0.00138681 0.000309375 0)
(0.00135011 0.000294938 0)
(0.00131528 0.000280426 0)
(0.00128235 0.000266082 0)
(0.00125133 0.000252145 0)
(0.0012222 0.000238828 0)
(0.00119493 0.000226331 0)
(0.00116945 0.000214829 0)
(0.0011457 0.00020448 0)
(0.00112358 0.00019541 0)
(0.00110299 0.000187725 0)
(0.00108388 0.000181496 0)
(0.00106599 0.00017676 0)
(0.00104742 0.000173542 0)
(0.00102927 0.000171995 0)
(0.00100276 2.75325e-05 0)
(0.00101627 7.09395e-05 0)
(0.00104273 0.000100616 0)
(0.00107673 0.000116111 0)
(0.00111461 0.000118285 0)
(0.00115412 0.000108773 0)
(0.00119372 8.96131e-05 0)
(0.00123251 6.29362e-05 0)
(0.00127013 3.07638e-05 0)
(0.00130659 -5.11362e-06 0)
(0.00134216 -4.31818e-05 0)
(0.00137719 -8.22021e-05 0)
(0.00141211 -0.000121182 0)
(0.0014473 -0.000159333 0)
(0.00148312 -0.00019603 0)
(0.00151986 -0.000230764 0)
(0.00155771 -0.000263112 0)
(0.0015968 -0.000292706 0)
(0.00163718 -0.000319212 0)
(0.00167882 -0.000342316 0)
(0.0017216 -0.000361711 0)
(0.00176536 -0.000377098 0)
(0.00180984 -0.000388178 0)
(0.00185476 -0.000394667 0)
(0.00189974 -0.00039629 0)
(0.00194436 -0.000392801 0)
(0.00198816 -0.000383991 0)
(0.00203061 -0.000369713 0)
(0.00207113 -0.000349896 0)
(0.00210911 -0.000324588 0)
(0.00214391 -0.000293971 0)
(0.0021749 -0.000258413 0)
(0.0022015 -0.000218458 0)
(0.00222321 -0.00017483 0)
(0.00223973 -0.000128355 0)
(0.00225089 -7.9899e-05 0)
(0.00225667 -3.02522e-05 0)
(0.00225709 1.98651e-05 0)
(0.00225215 6.97954e-05 0)
(0.00224185 0.000118851 0)
(0.00222623 0.000166293 0)
(0.00220543 0.000211333 0)
(0.00217973 0.000253221 0)
(0.00214958 0.000291327 0)
(0.00211549 0.000325181 0)
(0.00207803 0.000354491 0)
(0.00203776 0.000379116 0)
(0.00199524 0.000399063 0)
(0.00195097 0.000414427 0)
(0.00190546 0.000425409 0)
(0.00185915 0.000432247 0)
(0.00181245 0.00043525 0)
(0.00176573 0.000434731 0)
(0.00171934 0.000431048 0)
(0.00167358 0.000424548 0)
(0.00162872 0.000415607 0)
(0.001585 0.000404577 0)
(0.00154261 0.000391825 0)
(0.00150172 0.000377692 0)
(0.00146247 0.000362525 0)
(0.00142495 0.000346638 0)
(0.00138926 0.000330348 0)
(0.00135544 0.000313938 0)
(0.00132351 0.000297687 0)
(0.00129348 0.000281845 0)
(0.00126534 0.000266652 0)
(0.00123905 0.00025232 0)
(0.00121455 0.000239048 0)
(0.00119178 0.000227008 0)
(0.00117064 0.000216355 0)
(0.001151 0.000207218 0)
(0.00113285 0.000199707 0)
(0.00111588 0.000193896 0)
(0.00109831 0.000189875 0)
(0.00108114 0.000187903 0)
(0.00100248 1.95679e-05 0)
(0.00101489 5.05001e-05 0)
(0.00103955 7.11964e-05 0)
(0.00107181 8.08815e-05 0)
(0.00110848 7.98345e-05 0)
(0.0011475 6.90201e-05 0)
(0.00118738 4.98225e-05 0)
(0.00122711 2.38176e-05 0)
(0.00126617 -7.40551e-06 0)
(0.00130438 -4.23599e-05 0)
(0.00134183 -7.97232e-05 0)
(0.00137871 -0.000118357 0)
(0.00141533 -0.000157304 0)
(0.001452 -0.000195765 0)
(0.00148902 -0.000233069 0)
(0.00152665 -0.000268649 0)
(0.00156507 -0.000302013 0)
(0.00160444 -0.000332717 0)
(0.0016448 -0.000360354 0)
(0.00168615 -0.000384535 0)
(0.00172841 -0.000404884 0)
(0.00177145 -0.000421033 0)
(0.00181505 -0.000432624 0)
(0.00185895 -0.000439307 0)
(0.00190283 -0.000440753 0)
(0.00194629 -0.000436658 0)
(0.00198892 -0.000426763 0)
(0.00203022 -0.00041086 0)
(0.00206965 -0.000388837 0)
(0.00210661 -0.000360688 0)
(0.00214046 -0.000326591 0)
(0.00217053 -0.000286922 0)
(0.00219621 -0.000242323 0)
(0.00221701 -0.000193646 0)
(0.00223264 -0.000141918 0)
(0.00224307 -8.81557e-05 0)
(0.00224839 -3.32534e-05 0)
(0.00224872 2.2091e-05 0)
(0.0022441 7.72495e-05 0)
(0.00223444 0.000131563 0)
(0.00221964 0.000184212 0)
(0.00219976 0.000234263 0)
(0.00217507 0.000280798 0)
(0.00214601 0.000323064 0)
(0.00211313 0.000360528 0)
(0.00207701 0.000392871 0)
(0.00203822 0.000419976 0)
(0.0019973 0.00044186 0)
(0.00195475 0.000458678 0)
(0.00191102 0.000470643 0)
(0.00186656 0.000478058 0)
(0.00182173 0.000481238 0)
(0.0017769 0.000480561 0)
(0.00173238 0.00047639 0)
(0.00168849 0.000469134 0)
(0.00164546 0.000459176 0)
(0.00160354 0.000446926 0)
(0.00156292 0.000432761 0)
(0.00152376 0.000417076 0)
(0.00148619 0.000400228 0)
(0.00145033 0.000382578 0)
(0.00141624 0.000364453 0)
(0.00138398 0.000346176 0)
(0.00135357 0.000328037 0)
(0.00132502 0.000310316 0)
(0.00129832 0.000293264 0)
(0.00127343 0.00027712 0)
(0.00125031 0.000262096 0)
(0.00122887 0.000248389 0)
(0.00120902 0.000236173 0)
(0.00119065 0.000225611 0)
(0.0011737 0.000216842 0)
(0.00115791 0.000209988 0)
(0.00114158 0.000205187 0)
(0.00112566 0.000202808 0)
(0.00100225 1.2286e-05 0)
(0.00101362 3.15966e-05 0)
(0.00103647 4.36157e-05 0)
(0.00106677 4.73287e-05 0)
(0.00110171 4.25928e-05 0)
(0.00113946 2.98651e-05 0)
(0.0011786 1.00159e-05 0)
(0.0012181 -1.58422e-05 0)
(0.00125735 -4.65004e-05 0)
(0.00129604 -8.07601e-05 0)
(0.00133411 -0.000117498 0)
(0.00137164 -0.000155699 0)
(0.00140884 -0.000194467 0)
(0.00144592 -0.000233019 0)
(0.00148313 -0.000270668 0)
(0.00152068 -0.00030681 0)
(0.00155877 -0.000340896 0)