% Model:              case3_1.mph
% Version:            COMSOL 5.2.0.166
% Date:               Mar 24 2021, 12:26
% Dimension:          2
% Nodes:              442
% Expressions:        32
% Description:        Velocity field, x component, Temperature, Concentration, Concentration
% Length unit:        m
% x                       y                        u (m/s) @ t=0.002        T (K) @ t=0.002          c_O2 (mol/m^3) @ t=0.002 c_CO2 (mol/m^3) @ t=0.002 u (m/s) @ t=0.004        T (K) @ t=0.004          c_O2 (mol/m^3) @ t=0.004 c_CO2 (mol/m^3) @ t=0.004 u (m/s) @ t=0.006        T (K) @ t=0.006          c_O2 (mol/m^3) @ t=0.006 c_CO2 (mol/m^3) @ t=0.006 u (m/s) @ t=0.008        T (K) @ t=0.008          c_O2 (mol/m^3) @ t=0.008 c_CO2 (mol/m^3) @ t=0.008 u (m/s) @ t=0.01         T (K) @ t=0.01           c_O2 (mol/m^3) @ t=0.01  c_CO2 (mol/m^3) @ t=0.01 u (m/s) @ t=0.02         T (K) @ t=0.02           c_O2 (mol/m^3) @ t=0.02  c_CO2 (mol/m^3) @ t=0.02 u (m/s) @ t=0.04         T (K) @ t=0.04           c_O2 (mol/m^3) @ t=0.04  c_CO2 (mol/m^3) @ t=0.04 u (m/s) @ t=0.06         T (K) @ t=0.06           c_O2 (mol/m^3) @ t=0.06  c_CO2 (mol/m^3) @ t=0.06
4.199998088034279E-4      4.0E-5                   0.00572364006070681      773.5135540483889        0.8546087869701633       0.19608255525366008      0.00572364006070681      778.5700423298706        3.875998872268269        2.0355941589492597       0.00572364006070681      789.3977297061941        5.391678976154365        5.6846037651495465       0.00572364006070681      803.7894492333344        4.464062899146848        11.001513217301634       0.00572364006070681      818.6273680658475        2.7443276759299833       16.508027021629395       0.00572364006070681      923.7116235606057        0.08517432144648915      30.598170551249286       0.00572364006070681      1229.010850440529        0.003288854787434353     36.567206888342746       0.00572364006070681      1504.3374118264949       0.00307366614740566      37.388988252551464
4.1999999999999996E-4     4.0E-5                   0.0057236397983518065    773.5135540227625        0.8546087385229986       0.19608253882494947      0.0057236397983518065    778.5700422299076        3.8759988239506655       2.03559410230667         0.0057236397983518065    789.3977295425542        5.391678971265851        5.6846036733026475       0.0057236397983518065    803.7894490504403        4.4640629314814575       11.001513099529479       0.0057236397983518065    818.6273678791473        2.7443277036387643       16.50802691985213        0.0057236397983518065    923.7116232260976        0.08517432267383454      30.598170522533007       0.0057236397983518065    1229.010850067422        0.003288854788852967     36.56720688452686        0.0057236397983518065    1504.337411520564        0.0030736661474933947    37.38898825201881
0                         4.0E-5                   0.005726619480041283     773                      34.20969529085874        0                        0.005726619480041283     773                      34.20969529085874        0                        0.005726619480041283     773                      34.20969529085874        0                        0.005726619480041283     773                      34.20969529085874        0                        0.005726619480041283     773                      34.20969529085874        0                        0.005726619480041283     773                      34.20969529085874        0                        0.005726619480041283     773                      34.20969529085874        0                        0.005726619480041283     773                      34.20969529085874        0
1.1986620254972375E-10    4.0E-5                   0.005726619645317495     773.0000124413996        34.20967673720595        2.858975897964068E-6     0.005726619645317495     773.000045362821         34.20967692224273        8.109117967478505E-6     0.005726619645317495     773.0001178941123        34.20966986864473        1.8003345366179686E-5    0.005726619645317495     773.000248558766         34.20966064800334        2.9875785525002813E-5    0.005726619645317495     773.0003580872261        34.20965900296759        3.324116705595696E-5     0.005726619645317495     773.0006616618648        34.209658467180596       3.785261819021208E-5     0.005726619645317495     773.000966234455         34.20965843685976        3.997298074708392E-5     0.005726619645317495     773.0011761639563        34.20965843339055        4.026877894992782E-5
4.1706689804676185E-4     4.0E-5                   0.00570392405406411      773.5139465677436        0.8553502195213436       0.19633392138209627      0.00570392405406411      778.5715734353419        3.876738291271163        2.0364607699053257       0.00570392405406411      789.4002361319679        5.391753773970445        5.686008982273088        0.00570392405406411      803.7922505826643        4.463568066468193        11.003315062674496       0.00570392405406411      818.6302277511702        2.7439036415216114       16.509584144526293       0.00570392405406411      923.7167472946219        0.08515553946633514      30.59860989122023        0.00570392405406411      1229.0165653863671       0.0032888331820777974    36.56726526888015        0.00570392405406411      1504.3420978217782       0.003073664906860813     37.38899640172295
4.141431516619234E-4      4.0E-5                   0.0057165730002931795    773.5151209747179        0.8575684060529589       0.19708621240268162      0.0057165730002931795    778.5761534410476        3.8789497413684866       2.0390534164010066       0.0057165730002931795    789.4077332080022        5.3919771050991985       5.690212804573737        0.0057165730002931795    803.8006294616371        4.462087848464361        11.008705027456296       0.0057165730002931795    818.6387811324366        2.7426353677203767       16.514241843082292       0.0057165730002931795    923.7320723220545        0.08509936652875667      30.59992405472544        0.0057165730002931795    1229.0336585708242       0.0032887683457090717    36.567439899119655       0.0057165730002931795    1504.3561134473066       0.0030736609849943593    37.38902077805685
4.141352476013829E-4      4.0E-5                   0.005716543074260194     773.5151241473822        0.8575743966478538       0.19708824392333074      0.005716543074260194     778.5761658138707        3.87895571368906         2.0390604175833134       0.005716543074260194     789.4077534612512        5.391977708202396        5.690224156556996        0.005716543074260194     803.8006520971104        4.462083850919597        11.008719582449487       0.005716543074260194     818.6388042394286        2.7426319425800805       16.514254420646868       0.005716543074260194     923.7321137228964        0.08509921482742532      30.59992760346997        0.005716543074260194     1229.0337047483324       0.0032887681708973844    36.56744037068809        0.005716543074260194     1504.3561513107347       0.0030736609746840927    37.389020843882015
4.14127351556469E-4       4.0E-5                   0.00571657498104183      773.5151294302037        0.8575843682361991       0.19709162744687486      0.00571657498104183      778.5761864063657        3.878965648029532        2.039072068939999        0.00571657498104183      789.4077871656907        5.391978707867698        5.690243046829349        0.00571657498104183      803.8006897629546        4.462077198855146        11.008743798831638       0.00571657498104183      818.6388426905664        2.7426262445676604       16.514275344954637       0.00571657498104183      923.7321826154192        0.08509896249530695      30.599933507249624       0.00571657498104183      1229.0337815878345       0.0032887678796133133    36.567441155210425       0.00571657498104183      1504.3562143154893       0.0030736609570685583    37.389020953392134
4.112070393224856E-4      4.0E-5                   0.005704646216256922     773.517082828653         0.8612708208736046       0.1983424386168604       0.005704646216256922     778.5838007426864        3.882638297051225        2.0433792609944077       0.005704646216256922     789.420249809673         5.392348262973558        5.69722626322643         0.005704646216256922     803.8146172048575        4.459617975471177        11.017695914250123       0.005704646216256922     818.6530605461803        2.740519735243817        16.522010462398864       0.005704646216256922     923.7576566940124        0.08500567778913884      30.602115966032752       0.005704646216256922     1229.0621941676418       0.0032886603180306063    36.56773117068812        0.005704646216256922     1504.3795112835523       0.0030736545664663416    37.389061436036656
4.08287847146857E-4       4.0E-5                   0.005716565095313148     773.5198171824434        0.8664285894641023       0.20009400198817723      0.005716565095313148     778.5944517874029        3.887771420781239        2.0494036151032042       0.005716565095313148     789.4376798654116        5.392862018634168        5.706992189492563        0.005716565095313148     803.8340936248218        4.456178818883687        11.03021230132115        0.005716565095313148     818.6729436672058        2.7375750492999398       16.53282369768028        0.005716565095313148     923.7932809738153        0.08487530369952666      30.605166923726962       0.005716565095313148     1229.101926561634        0.003288509755442772     36.568136603637086       0.005716565095313148     1504.4120898855192       0.0030736454325578297    37.389118029752645
4.082804999763851E-4      4.0E-5                   0.00571653510919573      773.519824061251         0.866441562817253        0.20009840750633506      0.00571653510919573      778.5944785821458        3.887784332073555        2.0494187674068463       0.00571653510919573      789.4377237140652        5.39286331085224         5.707016752489498        0.00571653510919573      803.8341426215597        4.456170168400168        11.030243782166188       0.00571653510919573      818.6729936872           2.7375676425704127       16.532850894785778       0.00571653510919573      923.7933705941309        0.08487497577244581      30.60517459740021        0.00571653510919573      1229.1020265167228       0.0032885093770699406    36.56813762336924        0.00571653510919573      1504.4121718437516       0.003073645409910844     37.38911817209507
4.082731957925472E-4      4.0E-5                   0.005716564948803458     773.5198328583983        0.866458144078778        0.20010404484007355      0.005716564948803458     778.5945128174047        3.887800811175365        2.0494381256184173       0.005716564948803458     789.4377797265741        5.39286494832798         5.70704812795366         0.005716564948803458     803.8342052005481        4.4561591189741945       11.030283981185857       0.005716564948803458     818.6730575756613        2.7375581869968646       16.532885616854532       0.005716564948803458     923.7934850616049        0.08487455725686986      30.605184394287747       0.005716564948803458     1229.1021541789444       0.003288508893386299     36.56813892527998        0.005716564948803458     1504.4122765201298       0.0030736453803573635    37.38911835382686
4.05353889849127E-4       4.0E-5                   0.005704565835559502     773.5233489898208        0.873084689278898        0.20235687991389714      0.005704565835559502     778.6081962536356        3.8943864799187367       2.0571741349658654       0.005704565835559502     789.4601672730668        5.393519324605629        5.719586511089859        0.005704565835559502     803.8592173136735        4.451743342370755        11.046348440876736       0.005704565835559502     818.6985931265357        2.7337793863324733       16.546761344574918       0.005704565835559502     923.8392366325935        0.08470730341658914      30.609099453844163       0.005704565835559502     1229.1531795406288       0.003288315764346108     36.56865919844384        0.005704565835559502     1504.4541146578445       0.003073633736045493     37.389190977829536
4.024387206772363E-4      4.0E-5                   0.005716087197129075     773.5276436177078        0.8811725992446731       0.2051106014320729       0.005716087197129075     778.6248899140902        3.9024106336622415       2.0666114505184656       0.005716087197129075     789.4874724008391        5.3943094425226565       5.734878927801025        0.005716087197129075     803.8897176227542        4.446357857467856        11.065933563337078       0.005716087197129075     818.7297333033889        2.729173904016595        16.563673870999192       0.005716087197129075     923.8950294392367        0.08450353428020688      30.61387137785237        0.005716087197129075     1229.2154003451444       0.0032880800473321535    36.569293359209276       0.005716087197129075     1504.5051322714964       0.0030736192081681256    37.389279499522765
4.0242656306970783E-4     4.0E-5                   0.005716036391252048     773.5276615308735        0.8812063302341087       0.2051220856148163       0.005716036391252048     778.6249595439558        3.902444098385309        2.066650807606172        0.005716036391252048     789.4875862914438        5.394312737545996        5.734942702739177        0.005716036391252048     803.889844840654         4.446335397219211        11.066015240220915       0.005716036391252048     818.7298631905473        2.7291546968635734       16.563744402100212       0.005716036391252048     923.8952621543821        0.08450268446564539      30.613891278434714       0.005716036391252048     1229.2156598716795       0.0032880790652692446    36.56929600388003        0.005716036391252048     1504.505345068859        0.0030736191485575357    37.38927986868805
4.024142924400215E-4      4.0E-5                   0.005716087809023222     773.5276829360412        0.8812466033980338       0.20513582172776007      0.005716087809023222     778.6250426312477        3.9024839705667187       2.06669777027795         0.005716087809023222     789.4877221490035        5.39431662026774         5.735018781441882        0.005716087809023222     803.8899965607375        4.4463086054073875       11.066112627349431       0.005716087809023222     818.7300181035104        2.7291318043755433       16.56382847450858        0.005716087809023222     923.895539704841         0.08450167204209155      30.61391499990391        0.005716087809023222     1229.2159693795466       0.0032880778929018422    36.569299156436294       0.005716087809023222     1504.505598846915        0.003073619075641571     37.38928030875005
3.994293291278326E-4      4.0E-5                   0.005703467533105263     773.5328971994111        0.8910559252904896       0.2084814973245979       0.005703467533105263     778.6452821596453        3.9121953285549838       2.0781359641069326       0.005703467533105263     789.5208160426388        5.39526215648657         5.753548383112508        0.005703467533105263     803.9269543766698        4.439783030977803        11.089831906359557       0.005703467533105263     818.7677537823698        2.723556039778681        16.5843047752056         0.005703467533105263     923.9631491469288        0.08425508510998568      30.619692496530416       0.005703467533105263     1229.2913633455707       0.0032877925408661547    36.57006697944836        0.005703467533105263     1504.5674174103563       0.0030736015043616245    37.38938748817729
3.9661075941235596E-4     4.0E-5                   0.005716145113647537     773.5385870945464        0.9017500957880575       0.21213659374193378      0.005716145113647537     778.6673320472768        3.922757119049412        2.0905975523192137       0.005716145113647537     789.5568562543835        5.396277151043304        5.773729552542656        0.005716145113647537     803.9671916155451        4.43267640042466         11.115650725566617       0.005716145113647537     818.8088408454664        2.717489599481849        16.606585830006804       0.005716145113647537     924.0367622740417        0.08398693615103764      30.625979264803735       0.005716145113647537     1229.373446237251        0.003287481485721367     36.57090251868032        0.005716145113647537     1504.634720116338        0.0030735817970068296    37.38950412059231
3.9655793110039407E-4     4.0E-5                   0.005715921722362961     773.5386935542236        0.9019501661400756       0.21220497100186086      0.005715921722362961     778.667744612899         3.922954716475342        2.090830680818996        0.005715921722362961     789.557530589511         5.396296142401306        5.774107098152766        0.005715921722362961     803.9679444829143        4.432543446279916        11.11613374147968        0.005715921722362961     818.8096096153297        2.7173761048554677       16.60700266288663        0.005715921722362961     924.0381396360186        0.08398191945328987      30.62609687737259        0.005715921722362961     1229.3749820757118       0.0032874756732570497    36.57091814990009        0.005715921722362961     1504.6359794052964       0.0030735814351380833    37.389506302538315
3.965032820610664E-4      4.0E-5                   0.005716166789802293     773.538818720502         0.9021851463837306       0.21228547264931572      0.005716166789802293     778.6682287684921        3.9231861478277072       2.0911042790533774       0.005716166789802293     789.5583215887237        5.396318048189719        5.774550024378321        0.005716166789802293     803.9688273257691        4.432387484194261        11.116700033777343       0.005716166789802293     818.8105111804141        2.717243116124221        16.607491166681857       0.005716166789802293     924.0397548981406        0.08397604455892073      30.626234713735613       0.005716166789802293     1229.376783034506        0.003287468847440867     36.57093646982262        0.005716166789802293     1504.6374560663553       0.003073580996175797     37.38950885981196
3.9354743430026904E-4     4.0E-5                   0.005702997399606674     773.5455997617853        0.9149138940095638       0.21664626374321527      0.005702997399606674     778.6944575473775        3.935721953251333        2.1059242047933298       0.005702997399606674     789.6011730633496        5.397504248633671        5.7985417265547605       0.005702997399606674     804.0166541159311        4.4239393314454425       11.147373628637174       0.005702997399606674     818.8593524186731        2.7100395426089636       16.63395108359952        0.005702997399606674     924.1272600944163        0.08365782491632377      30.633700653887015       0.005702997399606674     1229.4743479631381       0.0032870994404601774    36.57192877363371        0.005702997399606674     1504.7174525114574       0.0030735575364710605    37.38964737496787
3.9070973760346506E-4     4.0E-5                   0.005716444383981731     773.5528928241902        0.9285882094281095       0.22134363444809227      0.005716444383981731     778.7226081104608        3.9491472220883246       2.121831769792632        0.005716444383981731     789.647141562296         5.398752651242578        5.824283862394594        0.005716444383981731     804.0679419347873        4.4148759679847425       11.180261170701709       0.005716444383981731     818.9117329093872        2.7023208787641324       16.662308169853222       0.005716444383981731     924.2211048256411        0.08331707711410907      30.641701985657605       0.005716444383981731     1229.5789713459171       0.003286702561325901     36.57299229352499        0.005716444383981731     1504.8032357773336       0.003073531346780028     37.38979583214925
3.906478199082452E-4      4.0E-5                   0.005716147844387779     773.5530529565946        0.9288883923048449       0.22144676757236698      0.005716147844387779     778.7232261183276        3.949441874342359        2.122180942911937        0.005716147844387779     789.6481507060255        5.398780017551886        5.824848890060264        0.005716147844387779     804.0690678292812        4.414677025639906        11.180983000224433       0.005716147844387779     818.9128828024309        2.7021514672119573       16.662930543806446       0.005716147844387779     924.2231649785816        0.08330959865215604      30.641877596990188       0.005716147844387779     1229.5812681039388       0.003286693861749467     36.57301563548613        0.005716147844387779     1504.8051189441376       0.003073530782915618     37.38979909045299
3.9059008997157605E-4     4.0E-5                   0.005716419775341188     773.5532186349466        0.9291985744039956       0.2215536641243708       0.005716419775341188     778.7238640142004        3.9497452647673374       2.1225414094961286       0.005716419775341188     789.6491917372733        5.3988076263646985       5.825431926064381        0.005716419775341188     804.0702288371975        4.414471775061759        11.181727214155623       0.005716419775341188     818.9140686815978        2.7019769284798665       16.66357189167974        0.005716419775341188     924.225289564718         0.08330189969690004      30.64205856432713        0.005716419775341188     1229.5836364395984       0.003286684869807749     36.573039690827216       0.005716419775341188     1504.8070607831446       0.0030735301730745283    37.38980244836517
3.875604338822085E-4      4.0E-5                   0.005701741385621662     773.5618718891219        0.9453984754937714       0.22713558488816438      0.005701741385621662     778.7571844879928        3.9655930299003215       2.1413676885831077       0.005701741385621662     789.703571461265         5.400251172348067        5.855883100083899        0.005701741385621662     804.1308769784284        4.403751409205762        11.220597987566375       0.005701741385621662     818.9760159369612        2.692860075746841        16.697070685040934       0.005701741385621662     924.336272998409         0.08289974004112614      30.651510822039015       0.005701741385621662     1229.7073533342455       0.0032862159169536487    36.57429614170485        0.005701741385621662     1504.9084984130072       0.00307349903974461      37.38997783707238
3.849760737188594E-4      4.0E-5                   0.005713248874916336     773.5700212167656        0.9606329239808047       0.2324031796694983       0.005713248874916336     778.7884801678506        3.980436504229181        2.159053423232854        0.005713248874916336     789.75461391025          5.401571460547853        5.884474627158682        0.005713248874916336     804.1877773138574        4.393687624129123        11.257060244750623       0.005713248874916336     819.0341420158873        2.6843151922542856       16.72847567359947        0.005713248874916336     924.4404081868452        0.08252313596543681      30.660372404612758       0.005713248874916336     1229.8234220197107       0.003285774659975746     36.57547415841093        0.005713248874916336     1505.003664252131        0.003073468145874635     37.3901422787519
3.8437033309427713E-4     4.0E-5                   0.005710598616594816     773.5719254483121        0.9641925010943143       0.23363380814033324      0.005710598616594816     778.795793499824         3.98390511771515         2.1631857275277273       0.005710598616594816     789.7665420013944        5.401880197496714        5.891155188340795        0.005710598616594816     804.201074546348         4.391336083128379        11.265580071760942       0.005710598616594816     819.0477257111693        2.6823184747291027       16.73581392970499        0.005710598616594816     924.4647440710058        0.08243513166195904      30.662443048814573       0.005710598616594816     1229.8505467785637       0.0032856717535076356    36.575749419360996       0.005710598616594816     1505.0259041070412       0.003073461127256327     37.39018070278112
3.8374186824420434E-4     4.0E-5                   0.0057133920248652915    773.5740933549027        0.9682384314236295       0.2350379978655201       0.0057133920248652915    778.8040946620894        3.987830080973847        2.167877223645017        0.0057133920248652915    789.7800715838694        5.402220162769181        5.8987354099277765       0.0057133920248652915    804.2161494742656        4.3886684383195895       11.275237006150686       0.0057133920248652915    819.0631274381974        2.68005734639978         16.74412625551433        0.0057133920248652915    924.4923363583836        0.08233556935013972      30.66478858585375        0.0057133920248652915    1229.8812969201356       0.0032855547017609094    36.57606124732517        0.0057133920248652915    1505.051116185868        0.003073452664836933     37.39022423173966
3.8128765793712786E-4     4.0E-5                   0.005703487220416989     773.5825833218537        0.9840807369757532       0.24053677121354877      0.005703487220416989     778.8366005891156        4.003196485070217        2.186246002934027        0.005703487220416989     789.8330499654786        5.4035499620274          5.928413968044488        0.005703487220416989     804.2751782523791        4.378223669145576        11.313045140519561       0.005703487220416989     819.1234363720123        2.671204742305057        16.776669392456178       0.005703487220416989     924.6003806798211        0.08194578419069387      30.67397147888753        0.005703487220416989     1230.0017059812249       0.0032850971047411045    36.577282071807126       0.005703487220416989     1505.1498396762504       0.0030734201921477832    37.39039464950673
3.794190332803186E-4      4.0E-5                   0.00571252404917813      773.5895598865718        0.9970792392952575       0.24506524410422337      0.00571252404917813      778.8632357958166        4.01575063639038         2.201301183608138        0.00571252404917813      789.876430402149         5.404607398278179        5.9527253047182045       0.00571252404917813      804.3234894146697        4.369669699057103        11.343984267053338       0.00571252404917813      819.1728014405426        2.6639669682924336       16.803283679502137       0.00571252404917813      924.6888164918724        0.08162739475911843      30.681481512569235       0.00571252404917813      1230.1002495970301       0.003284721026612765     36.578280571698606       0.00571252404917813      1505.2306348661918       0.003073391708797566     37.39053403430899
3.787952344534636E-4      4.0E-5                   0.005710880642396257     773.5919066822357        1.0014505091662025       0.24658871890918918      0.005710880642396257     778.8721924936324        4.019970404366237        2.2063632910201263       0.005710880642396257     789.8910169522965        5.404961717538631        5.960899160047051        0.005710880642396257     804.3397330747588        4.366793707730154        11.35438527411922        0.005710880642396257     819.1893997924608        2.6615339760242565       16.81223014612998        0.005710880642396257     924.7185519965291        0.08152037952564539      30.68400603709745        0.005710880642396257     1230.1333832043674       0.0032845948467818634    36.57861622366299        0.005710880642396257     1505.2578008320681       0.0030733823689471163    37.39058088915658
3.7820657496265156E-4     4.0E-5                   0.005713166832646748     773.5942387592108        1.0057893072210984       0.24810518838641055      0.005713166832646748     778.881073507963         4.024145073162832        2.211383693920201        0.005713166832646748     789.9054725971645        5.40530479661441         5.969002241288445        0.005713166832646748     804.3558249066364        4.363943130407251        11.364688111334875       0.005713166832646748     819.2058445640107        2.659125614386125        16.82108798041988        0.005713166832646748     924.7480116817787        0.08141452277220966      30.686505582402567       0.005713166832646748     1230.166206168765        0.0032844693554263072    36.5789485736468         0.005713166832646748     1505.2847118998243       0.0030733725408963112    37.39062728362571
3.7666571409897184E-4     4.0E-5                   0.005711094577416715     773.6003567856179        1.0171704161850037       0.25208351238440574      0.005711094577416715     778.9043696575594        4.035093868688106        2.224551883970708        0.005711094577416715     789.9433908508504        5.406203624437283        5.990255655138435        0.005711094577416715     804.398034342219         4.356466327152557        11.39171017161055        0.005711094577416715     819.2489801420428        2.6528091088498966       16.844319573134896       0.005711094577416715     924.8252864222032        0.08113689895208245      30.693061188460568       0.005711094577416715     1230.252302539458        0.003284140645867626     36.57982023660087        0.005711094577416715     1505.3553010177195       0.0030733471759917946    37.39074896322064
3.7430006075229246E-4     4.0E-5                   0.005712625256258536     773.61027111502          1.0355875715049754       0.2585425508477147       0.005712625256258536     778.94202508237          4.052743711183203        2.2458404691447558       0.005712625256258536     790.0046434237909        5.407615685102622        6.0245984302246205       0.005712625256258536     804.4661891228911        4.344387176174394        11.435334196123769       0.005712625256258536     819.3186383460267        2.642619901399568        16.88180365976858        0.005712625256258536     924.9500719959635        0.08068943429706842      30.703638793945057       0.005712625256258536     1230.3913171348154       0.0032836083173563044    36.58122677690994        0.005712625256258536     1505.4692759652232       0.0030733041927343465    37.39094531087657