% Model:              case3_1.mph
% Version:            COMSOL 5.2.0.166
% Date:               Mar 24 2021, 12:26
% Dimension:          2
% Nodes:              105
% Expressions:        32
% Description:        Velocity field, x component, Temperature, Concentration, Concentration
% Length unit:        m
% x                       y                        u (m/s) @ t=0.002        T (K) @ t=0.002          c_O2 (mol/m^3) @ t=0.002 c_CO2 (mol/m^3) @ t=0.002 u (m/s) @ t=0.004        T (K) @ t=0.004          c_O2 (mol/m^3) @ t=0.004 c_CO2 (mol/m^3) @ t=0.004 u (m/s) @ t=0.006        T (K) @ t=0.006          c_O2 (mol/m^3) @ t=0.006 c_CO2 (mol/m^3) @ t=0.006 u (m/s) @ t=0.008        T (K) @ t=0.008          c_O2 (mol/m^3) @ t=0.008 c_CO2 (mol/m^3) @ t=0.008 u (m/s) @ t=0.01         T (K) @ t=0.01           c_O2 (mol/m^3) @ t=0.01  c_CO2 (mol/m^3) @ t=0.01 u (m/s) @ t=0.02         T (K) @ t=0.02           c_O2 (mol/m^3) @ t=0.02  c_CO2 (mol/m^3) @ t=0.02 u (m/s) @ t=0.04         T (K) @ t=0.04           c_O2 (mol/m^3) @ t=0.04  c_CO2 (mol/m^3) @ t=0.04 u (m/s) @ t=0.06         T (K) @ t=0.06           c_O2 (mol/m^3) @ t=0.06  c_CO2 (mol/m^3) @ t=0.06
1.1E-4                    5.1262189045352836E-5    0.0012527070270523675    786.5101726517561        16.440606724264597       3.4717507938260685       0.0012527070270523675    819.0514742201693        15.62617861775858        8.941637182590192        0.0012527070270523675    892.5374400551686        7.976752711728638        19.426511923154195       0.0012527070270523675    1016.9026623559432       1.261940006967383        28.472343389934075       0.0012527070270523675    1117.67609957336         0.47677351520884254      30.774838252743834       0.0012527070270523675    1394.3939324074795       0.25861082354536624      34.895075015257085       0.0012527070270523675    1669.2267963302527       0.24735969295744023      36.92821653868564        0.0012527070270523675    1857.933821020912        0.2460865480272733       37.21229095763578
1.1E-4                    5.1295356393581194E-5    0.001285096075653613     786.5036716761985        16.441927281870353       3.4703043214543743       0.001285096075653613     819.0314530371261        15.628974909968955       8.93856367356155         0.001285096075653613     892.4788944910093        7.983667120505054        19.418908242037947       0.001285096075653613     1016.7731628941003       1.269601212649045        28.4639173146495         0.001285096075653613     1117.4973461164004       0.4835558105956163       30.767378543835864       0.001285096075653613     1394.1343376273446       0.26480155834504965      34.88826540371372        0.001285096075653613     1668.9382166541438       0.2535116316772598       36.921449297033874       0.001285096075653613     1857.6365892020694       0.2522344464865593       37.205528117225555
1.1E-4                    5.063510896050105E-5     6.413950827872014E-4     786.6339111622955        16.416922409963963       3.4983433902653704       6.413950827872014E-4     819.4306429856792        15.575248548112777       8.998018334612535        6.413950827872014E-4     893.6408703310109        7.849001791518994        19.567330058840945       6.413950827872014E-4     1019.3274381065261       1.1150612031609688       28.634149945002562       6.413950827872014E-4     1121.0144488218764       0.3440517716004895       30.921024983838162       6.413950827872014E-4     1399.2644412130842       0.1361708649181          35.02983602184098        6.413950827872014E-4     1674.705137610226        0.12561704881885286      37.06215079224437        6.413950827872014E-4     1863.6291456979425       0.12441726005953027      37.34613616398485
1.1E-4                    2.8850564297665283E-5    0.0011435397242747906    786.5323979961788        16.43665605281236        3.4763571966196087       0.0011435397242747906    819.1193816840877        15.617477628151597       8.951391478577756        0.0011435397242747906    892.7342511204916        7.954465742228799        19.45117579444278        0.0011435397242747906    1017.3330555490162       1.2353219580846126       28.5017438020136         0.0011435397242747906    1118.267660235109        0.45226351023572753      30.801896279615747       0.0011435397242747906    1395.261364972887        0.23576332857937243      34.92024119630424        0.0011435397242747906    1670.2132293054776       0.22462636017631124      36.953224413029325       0.0011435397242747906    1858.9679997750304       0.22336512545765666      37.23728115327561
1.1E-4                    2.9372841485999255E-5    6.333560099519141E-4     786.6354587803423        16.416813749030123       3.498557197409419        6.333560099519141E-4     819.4352994149164        15.5749053760093         8.998463124987873        6.333560099519141E-4     893.6544353558241        7.847984104225575        19.568503241090358       6.333560099519141E-4     1019.3571992056237       1.1136556813802114       28.63573870875638        6.333560099519141E-4     1121.0553976742349       0.342633987895797        30.922618371622168       6.333560099519141E-4     1399.323501845535        0.1347775319964135       35.03137780574528        6.333560099519141E-4     1674.7706655964646       0.12422422948128924      37.06367919811613        6.333560099519141E-4     1863.6966159126132       0.12302429292304         37.347662941229494
1.1E-4                    2.877811528754567E-5     0.0012145703378081277    786.5180755834729        16.439563406186366       3.4731397665766655       0.0012145703378081277    819.0752800631334        15.623678378992391       8.944550570723399        0.0012145703378081277    892.606261525714         7.970094404887475        19.43396841215586        0.0012145703378081277    1017.0521065169694       1.2534305348954722       28.481810004945977       0.0012145703378081277    1117.8807575933233       0.46856593708094807      30.783951242750508       0.0012145703378081277    1394.692566648625        0.25077062364841163      34.90372822688041        0.0012145703378081277    1669.5660860384908       0.23954451511820846      36.93681343692507        0.0012145703378081277    1858.289511151438        0.23827364196631204      37.22088132972044
1.1E-4                    5.1330073331307326E-5    0.00131741854480477      786.4968667740995        16.443194479690945       3.468901659877295        0.00131741854480477      819.0106684088865        15.63167279585112        8.9355927499166          0.00131741854480477      892.4181666463505        7.9903422643866895       19.411562967098163       0.00131741854480477      1016.6393118427951       1.2771656661620943       28.455594226614245       0.00131741854480477      1117.3129979076314       0.4903883607532203       30.75986123836289        0.00131741854480477      1393.8676454070003       0.2711024034261365       34.88133358192613        0.00131741854480477      1668.6424191690514       0.25977723011563003      36.91455650020215        0.00131741854480477      1857.3323514789708       0.25849645602425614      37.198639303981025
1.1E-4                    5.2034651540992386E-5    0.001977562491205102     786.3583966743071        16.470017652942467       3.4391091714471327       0.001977562491205102     818.5856279362553        15.688960743517182       8.872313904901773        0.001977562491205102     891.1805410937545        8.133899731140547        19.253442117929097       0.001977562491205102     1013.9158395684134       1.4422983145381407       28.273761431909463       0.001977562491205102     1113.5612497790144       0.6394727217416656       30.59570991553638        0.001977562491205102     1388.3923239149278       0.408557828422467        34.73006749022188        0.001977562491205102     1662.4854106247376       0.39644472247060264      36.76420629390887        0.001977562491205102     1850.933126522073        0.39508103322778204      37.04838717383968
1.1E-4                    2.8714054401852357E-5    0.0012746991841008927    786.5053530103929        16.441813175560505       3.4705123414845196       0.0012746991841008927    819.0364319118237        15.628638582811673       8.938984521105628        0.0012746991841008927    892.4938582892423        7.982844971153792        19.419853368409186       0.0012746991841008927    1016.8067579104595       1.2688247990877326       28.46480226823189        0.0012746991841008927    1117.5437808377428       0.4828180623918205       30.768213445774535       0.0012746991841008927    1394.1973648891571       0.26408246524197304      34.88906159506655        0.0012746991841008927    1669.0002437263881       0.25278916348610136      36.92223990496001        0.0012746991841008927    1857.6941213082828       0.25151109827099144      37.20631839305353
1.1E-4                    2.800390428713884E-5     0.0019423700290724045    786.3657318586066        16.469023515353207       3.440363722542213        0.0019423700290724045    818.6076589267306        15.68666647799984        8.874938287399061        0.0019423700290724045    891.2448396778991        8.128053641697136        19.259954329721538       0.0019423700290724045    1014.0566169472136       1.4352876618041506       28.281537160679186       0.0019423700290724045    1113.7544062659842       0.6328193611532718       30.603078381592244       0.0019423700290724045    1388.6693293812232       0.40224361753539306      34.737028876011195       0.0019423700290724045    1662.790285407287        0.39014911192346174      36.77112978999813        0.0019423700290724045    1851.2450141671954       0.38878665598804624      37.05530687466639
1.1E-4                    5.306932634989326E-5     0.0028778055455377996    786.15827963424          16.504587192084905       3.399178217790567        0.0028778055455377996    817.9759463335256        15.764540324630842       8.78782199455222         0.0028778055455377996    889.4093853944206        8.325601187123517        19.041471165686428       0.0028778055455377996    1010.0359556586772       1.6701395278656916       28.022216974537166       0.0028778055455377996    1108.2279411934792       0.8502975798213751       30.36305279779909        0.0028778055455377996    1380.6175664202744       0.6056079508485245       34.51301331299618        0.0028778055455377996    1653.7242898765385       0.5925471537598206       36.54842871667677        0.0028778055455377996    1841.8099010367716       0.5910861931293211       36.832749349104134
1.1E-4                    5.328154584230715E-5     0.0030631748528155665    786.1169642136978        16.512250878169716       3.3907687021001798       0.0030631748528155665    817.8496961372799        15.78076409644807        8.76998346522467         0.0030631748528155665    889.0405028260757        8.365761693506897        18.99730277684436        0.0030631748528155665    1009.2225099660031       1.7160037109656574       27.971767750113568       0.0030631748528155665    1107.1074551864913       0.8918894135546893       30.317301953228895       0.0030631748528155665    1378.995888969916        0.6440409798122907       34.4707346564031         0.0030631748528155665    1651.9243380299238       0.6307701144633071       36.50637978167848        0.0030631748528155665    1839.9575530722711       0.6292878232543172       36.79072368719794
1.1E-4                    5.354315645341605E-5     0.003262483252979319     786.068370339766         16.52059273262835        3.381495541425358        0.003262483252979319     817.7021835346104        15.798529127131086       8.750388317118459        0.003262483252979319     888.6102667302232        8.409747668875857        18.94887641325544        0.003262483252979319     1008.2771449636967       1.7673904644685234       27.915202425738833       0.003262483252979319     1105.807385504078        0.9394700002379964       30.264931798447545       0.003262483252979319     1377.117337533668        0.6885588192208298       34.42174834950778        0.003262483252979319     1649.839256578254        0.6750863037820952       36.457622563400896       0.003262483252979319     1837.8113425373253       0.6735844508579194       36.74198900568659
1.1E-4                    2.6858931813230355E-5    0.0029359696647003096    786.144248317118         16.50712026545904        3.3962969466839623       0.0029359696647003096    817.9330820523261        15.770027459890006       8.781711887530484        0.0029359696647003096    889.2851847287275        8.339534921388926        19.026083018419143       0.0029359696647003096    1009.7642671557633       1.6868168859037989       28.00381808462666        0.0029359696647003096    1107.8544789965936       0.8657403121721584       30.346020191047224       0.0029359696647003096    1380.070135966688        0.6200356065962135       34.49712065146536        0.0029359696647003096    1653.1018058801155       0.606898134407302        36.53263268286812        0.0029359696647003096    1841.1572934365963       0.6054286034383823       36.81696446167176
1.1E-4                    2.6655653365284962E-5    0.0031140806308803033    786.104613754066         16.514503773665222       3.3882199565553037       0.0031140806308803033    817.8119481674886        15.785628159417405       8.764577198927462        0.0031140806308803033    888.9310730170838        8.378081298090768        18.98370511326515        0.0031140806308803033    1008.9829716972057       1.7306862578360196       27.95557577079813        0.0031140806308803033    1106.7781090825808       0.9054560025725102       30.302343514634728       0.0031140806308803033    1378.5133889325557       0.6566975670391334       34.456794271512415       0.0031140806308803033    1651.376329044822        0.6433571951222281       36.492524841933715       0.0031140806308803033    1839.3835339004518       0.6418670529262921       36.776878641425924
1.1E-4                    5.506813696894771E-5     0.00443107650159041      785.7820633871266        16.567310196701776       3.3265979369946774       0.00443107650159041      816.8316629494021        15.901669015955619       8.634292606734363        0.00443107650159041      886.0830442246711        8.673177070195283        18.656968319419985       0.00443107650159041      1002.7455679237315       2.0861450540843167       27.562761106905064       0.00443107650159041      1098.2062360706211       1.2381987937067938       29.934836295533756       0.00443107650159041      1366.0386313841434       0.9699236817797758       34.11165204957356        0.00443107650159041      1637.3480315925765       0.9552622347769647       36.14930348597242        0.00443107650159041      1824.797410347434        0.9536417239530015       36.43386609937438
1.1E-4                    5.5797585087798355E-5    0.004895441826863176     785.6551037099156        16.58760733603197        3.303185704833866        0.004895441826863176     816.447291079004         15.945832007287345       8.584942862083295        0.004895441826863176     884.9655087083255        8.783996818592046        18.534446715513393       0.004895441826863176     1000.2982681391943       2.2192069268517174       27.415858158170185       0.004895441826863176     1094.8436519043944       1.3635943078872936       29.79646319492647        0.004895441826863176     1361.1651728559912       1.0885733277190341       33.98095488775709        0.004895441826863176     1631.9051683370078       1.0734754606696169       36.01921890601597        0.004895441826863176     1819.1679025073663       1.0718145920773892       36.303844450866414
1.1E-4                    2.6348930774904327E-5    0.003348373228323829     786.0477119132076        16.524254275237176       3.3773709323472914       0.003348373228323829     817.6392537554091        15.806403929033221       8.741657518897457        0.003348373228323829     888.4274415487056        8.429520877245954        18.92706957537242        0.003348373228323829     1007.8765209251626       1.7908012905809692       27.88940047408503        0.003348373228323829     1105.2566081824673       0.9611419362530516       30.241050764188806       0.003348373228323829     1376.3149052848535       0.7088121990711004       34.399448055121894       0.003348373228323829     1648.935996613172        0.6952364176682044       36.435446428696594       0.003348373228323829     1836.8715295866482       0.6937234267414046       36.71982660223956
1.1E-4                    2.501505113638367E-5     0.004373642140007839     785.7964866973598        16.565605752314458       3.329114219361276        0.004373642140007839     816.87515399535          15.897300435721263       8.639560775110814        0.004373642140007839     886.208354066905         8.661175759223568        18.670545447617826       0.004373642140007839     1003.0171177099458       2.070474854988984        27.580307711543938       0.004373642140007839     1098.5782050900452       1.2228870901399973       29.951931024529095       0.004373642140007839     1366.5845701886512       0.9551158799955309       34.12803442691869        0.004373642140007839     1637.973579372535        0.9404806319658723       36.16557471712157        0.004373642140007839     1825.4572228278405       0.9388614972564838       36.45012430165876
1.1E-4                    1.0956560983098401E-6    0.001056174300124556     783.7122228393536        16.839979916973782       2.9603972360471573       0.001056174300124556     810.5918539791174        16.551422677760126       7.869676871400453        0.001056174300124556     868.0960398137935        10.369662964475324       16.750656467229877       0.001056174300124556     963.650539505821         4.222148072276074        25.179057010651615       0.001056174300124556     1044.5254782427253       3.3117619793515267       27.625830380202085       0.001056174300124556     1287.559241685702        2.9731104168431757       31.897377096864133       0.001056174300124556     1548.6333793147237       2.9547054067232175       33.94820771397516        0.001056174300124556     1732.2430587324973       2.952839582128117        34.23430738674067
1.1E-4                    1.7049707127272443E-6    0.0015996425808012724    783.7191593784067        16.839162605350438       2.9615851368043997       0.0015996425808012724    810.6129260798675        16.54940007686644        7.872172804607912        0.0015996425808012724    868.15646328313          10.364205666675748       16.75687473438702        0.0015996425808012724    963.7820342072222        4.214977391404446        25.18713233689352        0.0015996425808012724    1044.7067523787957       3.304678728001229        27.63378024582117        0.0015996425808012724    1287.8272783712746       2.966186884059809        31.90504799266074        0.0015996425808012724    1548.9381899773157       2.947786430337484        33.95581881697989        0.0015996425808012724    1732.5619532449691       2.945920416945346        34.24191104304312
1.1E-4                    5.674650266776026E-5     0.005478625070169772     785.4899739035458        16.611305826368806       3.273160746021721        0.005478625070169772     815.9470790078382        16.000641035468686       8.521679870880678        0.005478625070169772     883.5183106669721        8.92754167025157         18.374139123499027       0.005478625070169772     997.1430534857911        2.3993192117437223       27.21570659723369        0.005478625070169772     1090.5125761566826       1.5362802154893274       29.604836917128384       0.005478625070169772     1354.8345769373082       1.2535928472656253       33.79877659439297        0.005478625070169772     1624.7221015304465       1.23798306884756         35.83813437840214        0.005478625070169772     1811.6478594845362       1.2362748092901858       36.12288627135025
1.1E-4                    5.756778011501119E-5     0.005916359990451332     785.3555215992725        16.632083906241135       3.248796047104192        0.005916359990451332     815.5405001270437        16.04625441771513        8.470392205920405        0.005916359990451332     882.3378553352929        9.042520599830903        18.246767416287756       0.005916359990451332     994.5612441754613        2.538964841046041        27.061322696247245       0.005916359990451332     1086.96582839236         1.6689595097686998       29.458252014122692       0.005916359990451332     1349.6881293063302       1.379832640307785        33.659651501756215       0.005916359990451332     1618.9635060571336       1.3638180993009423       35.69965064706846        0.005916359990451332     1805.6835116543898       1.362074213150259        35.984469159735674
1.1E-4                    5.8391747603141425E-5    0.006294594085498593     785.2273712409178        16.6493986461111         3.2261312404547278       0.006294594085498593     815.1534914538111        16.08704790158408        8.422835604428766        0.006294594085498593     881.2193650103118        9.149594922586374        18.1268121879069         0.006294594085498593     992.1261513926431        2.6742647286998253       26.91066239554243        0.006294594085498593     1083.6240302622573       1.799903285988525        29.312707825871428       0.006294594085498593     1344.8081481135914       1.5058648784729174       33.52042376861581        0.006294594085498593     1613.4368851209847       1.4895497598298957       35.56123094309197        0.006294594085498593     1799.906389460018        1.4877816435950257       35.846142880355956
1.1E-4                    5.883568995116002E-5     0.006489158661450999     785.1585820502393        16.659824830166713       3.2138110734282677       0.006489158661450999     814.9456304642409        16.110015138425396       8.396925698809314        0.006489158661450999     880.6164173660402        9.207559815148379        18.062532371971713       0.006489158661450999     990.8083845319943        2.745133090923021        26.832256378330847       0.006489158661450999     1081.813786259291        1.8675944088096783       29.237874277028986       0.006489158661450999     1342.1795654322991       1.570511078783843        33.449161001903995       0.006489158661450999     1610.4933495340765       1.5540104745692103       35.4902878877043         0.006489158661450999     1796.856113302455        1.5522268505891974       35.775233060521536
1.1E-4                    2.3796172023655703E-5    0.005143398735379595     785.5841333209911        16.596784582390548       3.2903776394806514       0.005143398735379595     816.2323020602219        15.968484317012756       8.557986329669147        0.005143398735379595     884.3467428623968        8.845740550299547        18.46487227358119        0.005143398735379595     998.9559799637993        2.2997023608342118       27.325926882647288       0.005143398735379595     1093.0032869708562       1.441891786576657        29.709192942214504       0.005143398735379595     1358.4523969050588       1.16398504408821         33.89755382236082        0.005143398735379595     1628.7787499318883       1.1486770730626905       35.936412530801526       0.005143398735379595     1815.8565421710061       1.146995603139935        36.22111158824654
1.1E-4                    2.322174824496837E-5     0.00550625893063675      785.4836594645506        16.6132201494349         3.2718017283143457       0.00550625893063675      815.9278764729113        16.00379000604653        8.51878075093587         0.00550625893063675      883.4606803293434        8.933747070205373        18.367771799120714       0.00550625893063675      997.0129483195243        2.4047033052420463       27.21016100105703        0.00550625893063675      1090.3325146261368       1.5405036623747845       29.600500519580756       0.00550625893063675      1354.585991393344        1.2570846471572452       33.79504857253792        0.00550625893063675      1624.4712545523626       1.2414195599801428       35.834364317990314       0.00550625893063675      1811.409972113974        1.2397048298622135       36.11910894124353
1.1E-4                    2.252069077772411E-5     0.005860395065024439     785.3718067739125        16.63002542739999        3.2516761876283056       0.005860395065024439     815.5900312488768        16.041157977591485       8.476490349416324        0.005860395065024439     882.4809539371743        9.028455823338064        18.26263540296127        0.005860395065024439     994.8732166049779        2.520520322014068        27.081945464462393       0.005860395065024439     1087.3941219604524       1.6510613597906403       29.478216715299965       0.005860395065024439     1350.3183226081724       1.3626124198872254       33.67869641303075        0.005860395065024439     1619.6869553522747       1.3466358198030708       35.71856240894958        0.005860395065024439     1806.447572294067        1.3448944576820414       36.00336536436368
1.1E-4                    2.1086805318337307E-6    0.0019587539833716104    783.7217855543578        16.83897266459082        2.962077404975581        0.0019587539833716104    810.6206194469678        16.548673171282          7.8731460611476916       0.0019587539833716104    868.1782386623235        10.362173720318854       16.75925008081158        0.0019587539833716104    963.8281268789399        4.21247347041942         25.190000365810747       0.0019587539833716104    1044.7695454159398       3.302224467600915        27.636569403331954       0.0019587539833716104    1287.9192349001123       2.9637869742163048       31.907719754066896       0.0019587539833716104    1549.0428511770072       2.9453877464747844       33.958459596099175       0.0019587539833716104    1732.6716743378245       2.9435216189555913       34.24454779966751
1.1E-4                    2.53429742569717E-6      0.002301211551024998     783.7295431599498        16.838196156048266       2.963403248242135        0.002301211551024998     810.644045787251         16.54651628799407        7.875900245355473        0.002301211551024998     868.2452860334904        10.356162786077356       16.766167125221507       0.002301211551024998     963.9733796956164        4.204512890224755        25.19901646022038        0.002301211551024998     1044.9693212353409       3.2943213152255977       27.645477844942825       0.002301211551024998     1288.2143248334319       2.9560355925729787       31.916322697676193       0.002301211551024998     1549.3795450232299       2.937639766202702        33.966985888178634       0.002301211551024998     1733.0250019657801       2.935773232056557        34.2530643461489
1.1E-4                    3.5564545946610063E-6    0.003121592038182344     783.7443260710186        16.83672688145777        2.966103935356171        0.003121592038182344     810.6880140719093        16.542206493914655       7.8813765827753475       0.003121592038182344     868.3703958170875        10.344528073507105       16.779556407046037       0.003121592038182344     964.2413722290671        4.189931589873332        25.215546413254593       0.003121592038182344     1045.3363832663294       3.2800284774598394       27.661594341200285       0.003121592038182344     1288.754050762298        2.9420863751741844       31.931807461694362       0.003121592038182344     1549.9928113264116       2.9237001661400015       33.982328314536645       0.003121592038182344     1733.6666218492915       2.921833279843574        34.268388726962215
1.1E-4                    5.2672376924648755E-6    0.0043087499011704045    783.7925537306804        16.831442508674197       2.9745053401490362       0.0043087499011704045    810.8333964513755        16.5282492640316         7.898801689060232        0.0043087499011704045    868.7863119081107        10.30666585987031        16.822862061883914       0.0043087499011704045    965.1414781897959        4.140733431253086        25.271077206578646       0.0043087499011704045    1046.574008609124        3.2314540601990345       27.716195582123994       0.0043087499011704045    1290.5799775173066       2.8945771528292976       31.984487231599893       0.0043087499011704045    1552.0711723921024       2.876220373564101        34.034581527720256       0.0043087499011704045    1735.84353010982         2.8743519796562156       34.32058848970623
1.1E-4                    7.413377044310993E-5     0.00468554124746912      783.8085245361299        16.82961187252875        2.9774846663106107       0.00468554124746912      810.8808660332008        16.52332414131432        7.904856508156903        0.00468554124746912      868.9212424016039        10.293800101967157       16.837529452085935       0.00468554124746912      965.4300248905098        4.12487148295595         25.288954637497653       0.00468554124746912      1046.9691184553915       3.215973127388504        27.733569348987693       0.00468554124746912      1291.1610480408683       2.8795199902015405       32.00118042718168        0.00468554124746912      1552.7313558926196       2.8611879804329305       34.051136426991626       0.00468554124746912      1736.5341135433146       2.8593218014048265       34.33712541372152
1.1E-4                    7.629556417608333E-5     0.003228189310584438     783.7507593114652        16.835797935126628       2.967166116408017        0.003228189310584438     810.707873110514         16.540240896313424       7.883683384508745        0.003228189310584438     868.4275645469586        10.339334067633718       16.785384119635186       0.003228189310584438     964.3668958312702        4.182885545909763        25.223408145668255       0.003228189310584438     1045.5101064030075       3.2730213091911518       27.66940442688925        0.003228189310584438     1289.0123951636845       2.93524281019691         31.939375432569076       0.003228189310584438     1550.288132114386        2.9168728470441048       33.98984430739834        0.003228189310584438     1733.9767028605686       2.915008065297743        34.27589764671113