/*--------------------------------*- C++ -*----------------------------------*\
  =========                 |
  \\      /  F ield         | OpenFOAM: The Open Source CFD Toolbox
   \\    /   O peration     | Website:  https://openfoam.org
    \\  /    A nd           | Version:  7
     \\/     M anipulation  |
\*---------------------------------------------------------------------------*/
FoamFile
{
    version     2.0;
    format      ascii;
    class       volScalarField;
    location    "20";
    object      C;
}
// * * * * * * * * * * * * * * * * * * * * * * * * * * * * * * * * * * * * * //

dimensions      [0 0 0 0 0 0 0];

internalField   nonuniform List<scalar> 
5625
(
0.01
0.01
0.01
0.01
0.01
0.01
0.01
0.01
0.01
0.01
0.01
0.01
0.01
0.01
0.01
0.01
0.01
0.01
0.01
0.01
0.01
0.01
0.01
0.01
0.01
0.01
0.01
0.01
0.01
0.01
0.01
0.01
0.01
0.01
0.01
0.01
0.01
0.00999999
0.00999999
0.00999999
0.00999999
0.00999999
0.00999998
0.00999998
0.00999998
0.00999997
0.00999997
0.00999996
0.00999996
0.00999995
0.00999994
0.00999993
0.00999992
0.00999991
0.0099999
0.00999988
0.00999987
0.00999985
0.00999983
0.00999981
0.00999979
0.00999976
0.00999974
0.00999971
0.00999968
0.00999965
0.00999962
0.00999958
0.00999954
0.0099995
0.00999947
0.00999943
0.0099994
0.00999937
0.00999936
0.01
0.01
0.01
0.01
0.01
0.01
0.01
0.01
0.01
0.01
0.01
0.01
0.01
0.01
0.01
0.01
0.01
0.01
0.01
0.01
0.01
0.01
0.01
0.01
0.01
0.01
0.01
0.01
0.01
0.01
0.01
0.01
0.01
0.01
0.01
0.01
0.01
0.00999999
0.00999999
0.00999999
0.00999999
0.00999999
0.00999998
0.00999998
0.00999998
0.00999997
0.00999997
0.00999996
0.00999995
0.00999995
0.00999994
0.00999993
0.00999992
0.00999991
0.00999989
0.00999988
0.00999986
0.00999985
0.00999983
0.00999981
0.00999979
0.00999976
0.00999974
0.00999971
0.00999968
0.00999965
0.00999961
0.00999957
0.00999954
0.0099995
0.00999946
0.00999942
0.00999939
0.00999936
0.00999934
0.01
0.01
0.01
0.01
0.01
0.01
0.01
0.01
0.01
0.01
0.01
0.01
0.01
0.01
0.01
0.01
0.01
0.01
0.01
0.01
0.01
0.01
0.01
0.01
0.01
0.01
0.01
0.01
0.01
0.01
0.01
0.01
0.01
0.01
0.01
0.01
0.00999999
0.00999999
0.00999999
0.00999999
0.00999999
0.00999998
0.00999998
0.00999998
0.00999997
0.00999997
0.00999996
0.00999995
0.00999995
0.00999994
0.00999993
0.00999992
0.00999991
0.0099999
0.00999988
0.00999987
0.00999985
0.00999983
0.00999981
0.00999979
0.00999977
0.00999975
0.00999972
0.00999969
0.00999966
0.00999963
0.00999959
0.00999955
0.00999951
0.00999947
0.00999943
0.00999939
0.00999935
0.00999932
0.0099993
0.01
0.01
0.01
0.01
0.01
0.01
0.01
0.01
0.01
0.01
0.01
0.01
0.01
0.01
0.01
0.01
0.01
0.01
0.01
0.01
0.01
0.01
0.01
0.01
0.01
0.01
0.01
0.01
0.01
0.01
0.01
0.01
0.01
0.01
0.01
0.00999999
0.00999999
0.00999999
0.00999999
0.00999998
0.00999998
0.00999998
0.00999997
0.00999997
0.00999996
0.00999995
0.00999995
0.00999994
0.00999993
0.00999992
0.00999991
0.0099999
0.00999988
0.00999987
0.00999986
0.00999984
0.00999982
0.0099998
0.00999978
0.00999976
0.00999973
0.00999971
0.00999968
0.00999965
0.00999961
0.00999958
0.00999954
0.0099995
0.00999946
0.00999942
0.00999937
0.00999933
0.00999929
0.00999925
0.00999923
0.01
0.01
0.01
0.01
0.01
0.01
0.01
0.01
0.01
0.01
0.01
0.01
0.01
0.01
0.01
0.01
0.01
0.01
0.01
0.01
0.01
0.01
0.01
0.01
0.01
0.01
0.01
0.01
0.01
0.01
0.01
0.01
0.00999999
0.00999999
0.00999999
0.00999999
0.00999998
0.00999998
0.00999998
0.00999997
0.00999997
0.00999996
0.00999995
0.00999994
0.00999994
0.00999993
0.00999992
0.00999991
0.00999989
0.00999988
0.00999987
0.00999985
0.00999984
0.00999982
0.0099998
0.00999978
0.00999976
0.00999974
0.00999971
0.00999969
0.00999966
0.00999963
0.0099996
0.00999956
0.00999953
0.00999949
0.00999945
0.0099994
0.00999936
0.00999931
0.00999927
0.00999922
0.00999917
0.00999913
0.0099991
0.01
0.01
0.01
0.01
0.01
0.01
0.01
0.01
0.01
0.01
0.01
0.01
0.01
0.01
0.01
0.01
0.01
0.01
0.01
0.01
0.01
0.01
0.01
0.01
0.01
0.01
0.01
0.01
0.01
0.01
0.00999999
0.00999999
0.00999999
0.00999999
0.00999998
0.00999998
0.00999997
0.00999996
0.00999995
0.00999995
0.00999994
0.00999992
0.00999991
0.0099999
0.00999989
0.00999987
0.00999986
0.00999984
0.00999982
0.0099998
0.00999979
0.00999977
0.00999974
0.00999972
0.0099997
0.00999967
0.00999965
0.00999962
0.00999959
0.00999956
0.00999953
0.00999949
0.00999945
0.00999942
0.00999938
0.00999933
0.00999929
0.00999924
0.00999919
0.00999914
0.00999909
0.00999903
0.00999898
0.00999894
0.0099989
0.01
0.01
0.01
0.01
0.01
0.01
0.01
0.01
0.01
0.01
0.01
0.01
0.01
0.01
0.01
0.01
0.01
0.01
0.01
0.01
0.01
0.01
0.01
0.01
0.01
0.01
0.01
0.01
0.01
0.00999999
0.00999999
0.00999998
0.00999998
0.00999997
0.00999996
0.00999995
0.00999993
0.00999992
0.00999991
0.00999989
0.00999987
0.00999985
0.00999983
0.00999981
0.00999979
0.00999976
0.00999974
0.00999971
0.00999969
0.00999966
0.00999963
0.00999961
0.00999958
0.00999955
0.00999952
0.00999949
0.00999945
0.00999942
0.00999938
0.00999935
0.00999931
0.00999927
0.00999922
0.00999918
0.00999913
0.00999908
0.00999903
0.00999898
0.00999892
0.00999886
0.0099988
0.00999874
0.00999869
0.00999863
0.00999859
0.01
0.01
0.01
0.01
0.01
0.01
0.01
0.01
0.01
0.01
0.01
0.01
0.01
0.01
0.01
0.01
0.01
0.01
0.01
0.01
0.01
0.01
0.01
0.01
0.01
0.01
0.01
0.00999999
0.00999999
0.00999998
0.00999997
0.00999996
0.00999995
0.00999993
0.00999991
0.00999988
0.00999986
0.00999983
0.0099998
0.00999977
0.00999973
0.0099997
0.00999966
0.00999962
0.00999959
0.00999955
0.00999951
0.00999947
0.00999943
0.00999939
0.00999935
0.00999932
0.00999928
0.00999924
0.0099992
0.00999916
0.00999912
0.00999908
0.00999903
0.00999899
0.00999894
0.0099989
0.00999885
0.00999879
0.00999874
0.00999868
0.00999862
0.00999856
0.0099985
0.00999843
0.00999837
0.0099983
0.00999824
0.00999818
0.00999813
0.01
0.01
0.01
0.01
0.01
0.01
0.01
0.01
0.01
0.01
0.01
0.01
0.01
0.01
0.01
0.01
0.01
0.01
0.01
0.01
0.01
0.01
0.01
0.01
0.01
0.00999999
0.00999999
0.00999998
0.00999997
0.00999996
0.00999994
0.00999991
0.00999987
0.00999983
0.00999978
0.00999973
0.00999968
0.00999962
0.00999956
0.0099995
0.00999944
0.00999937
0.00999931
0.00999924
0.00999918
0.00999912
0.00999906
0.009999
0.00999894
0.00999889
0.00999884
0.00999879
0.00999874
0.00999869
0.00999864
0.0099986
0.00999855
0.0099985
0.00999846
0.00999841
0.00999835
0.0099983
0.00999824
0.00999819
0.00999813
0.00999806
0.009998
0.00999793
0.00999786
0.00999778
0.00999771
0.00999764
0.00999756
0.0099975
0.00999745
0.01
0.01
0.01
0.01
0.01
0.01
0.01
0.01
0.01
0.01
0.01
0.01
0.01
0.01
0.01
0.01
0.01
0.01
0.01
0.01
0.01
0.01
0.01
0.01
0.00999999
0.00999999
0.00999998
0.00999996
0.00999993
0.0099999
0.00999985
0.00999979
0.00999971
0.00999961
0.00999951
0.00999939
0.00999928
0.00999917
0.00999905
0.00999893
0.00999881
0.00999869
0.00999858
0.00999847
0.00999836
0.00999827
0.00999818
0.0099981
0.00999802
0.00999795
0.00999789
0.00999783
0.00999778
0.00999773
0.00999768
0.00999763
0.00999759
0.00999754
0.00999749
0.00999745
0.0099974
0.00999734
0.00999729
0.00999723
0.00999717
0.0099971
0.00999703
0.00999696
0.00999688
0.0099968
0.00999672
0.00999664
0.00999656
0.00999649
0.00999644
0.01
0.01
0.01
0.01
0.01
0.01
0.01
0.01
0.01
0.01
0.01
0.01
0.01
0.01
0.01
0.01
0.01
0.01
0.01
0.01
0.01
0.01
0.01
0.00999999
0.00999998
0.00999997
0.00999994
0.0099999
0.00999984
0.00999976
0.00999965
0.0099995
0.00999932
0.00999911
0.00999888
0.00999864
0.0099984
0.00999817
0.00999794
0.00999771
0.00999749
0.00999728
0.00999708
0.00999691
0.00999674
0.0099966
0.00999648
0.00999637
0.00999629
0.00999621
0.00999615
0.00999611
0.00999607
0.00999604
0.00999601
0.00999598
0.00999596
0.00999594
0.00999591
0.00999589
0.00999586
0.00999582
0.00999578
0.00999573
0.00999568
0.00999562
0.00999555
0.00999549
0.00999541
0.00999533
0.00999525
0.00999517
0.00999509
0.00999502
0.00999496
0.01
0.01
0.01
0.01
0.01
0.01
0.01
0.01
0.01
0.01
0.01
0.01
0.01
0.01
0.01
0.01
0.01
0.01
0.01
0.01
0.01
0.01
0.00999999
0.00999998
0.00999996
0.00999992
0.00999987
0.00999977
0.00999964
0.00999944
0.00999918
0.00999884
0.00999844
0.00999798
0.00999748
0.00999697
0.00999648
0.00999602
0.00999558
0.00999516
0.00999476
0.0099944
0.00999408
0.0099938
0.00999357
0.00999339
0.00999325
0.00999314
0.00999308
0.00999304
0.00999303
0.00999305
0.00999307
0.00999311
0.00999316
0.0099932
0.00999325
0.0099933
0.00999334
0.00999337
0.00999339
0.00999341
0.00999341
0.0099934
0.00999339
0.00999336
0.00999332
0.00999327
0.00999321
0.00999315
0.00999308
0.00999301
0.00999294
0.00999287
0.00999281
0.01
0.01
0.01
0.01
0.01
0.01
0.01
0.01
0.01
0.01
0.01
0.01
0.01
0.01
0.01
0.01
0.01
0.01
0.01
0.01
0.00999999
0.00999999
0.00999998
0.00999995
0.0099999
0.00999982
0.00999969
0.00999947
0.00999916
0.00999871
0.00999812
0.00999738
0.0099965
0.0099955
0.00999445
0.00999339
0.0099924
0.00999152
0.00999068
0.00998991
0.00998922
0.00998863
0.00998814
0.00998775
0.00998747
0.00998729
0.0099872
0.00998719
0.00998724
0.00998735
0.00998751
0.0099877
0.00998791
0.00998813
0.00998836
0.00998858
0.0099888
0.009989
0.00998919
0.00998936
0.00998951
0.00998964
0.00998975
0.00998983
0.00998989
0.00998993
0.00998996
0.00998996
0.00998995
0.00998992
0.00998989
0.00998985
0.0099898
0.00998976
0.00998972
0.01
0.01
0.01
0.01
0.01
0.01
0.01
0.01
0.01
0.01
0.01
0.01
0.01
0.01
0.01
0.01
0.01
0.01
0.01
0.00999999
0.00999999
0.00999997
0.00999994
0.00999989
0.00999978
0.00999959
0.00999929
0.00999881
0.0099981
0.00999712
0.00999583
0.00999422
0.00999233
0.00999024
0.00998806
0.00998592
0.00998397
0.00998229
0.00998077
0.00997942
0.00997828
0.00997737
0.00997669
0.00997625
0.00997603
0.009976
0.00997615
0.00997644
0.00997686
0.00997736
0.00997793
0.00997854
0.00997917
0.0099798
0.00998043
0.00998103
0.0099816
0.00998214
0.00998263
0.00998308
0.00998348
0.00998383
0.00998414
0.00998441
0.00998463
0.00998481
0.00998496
0.00998507
0.00998515
0.00998521
0.00998525
0.00998527
0.00998528
0.00998529
0.00998529
0.01
0.01
0.01
0.01
0.01
0.01
0.01
0.01
0.01
0.01
0.01
0.01
0.01
0.01
0.01
0.01
0.01
0.01
0.01
0.00999999
0.00999997
0.00999994
0.00999987
0.00999974
0.0099995
0.00999909
0.00999841
0.00999737
0.00999584
0.00999374
0.00999099
0.00998761
0.00998369
0.0099794
0.00997501
0.0099708
0.00996707
0.00996399
0.0099613
0.00995905
0.00995728
0.00995602
0.00995527
0.00995499
0.00995513
0.00995566
0.00995649
0.00995758
0.00995885
0.00996024
0.00996172
0.00996322
0.00996472
0.00996619
0.0099676
0.00996894
0.0099702
0.00997136
0.00997242
0.00997339
0.00997426
0.00997503
0.00997571
0.0099763
0.00997682
0.00997726
0.00997763
0.00997793
0.00997819
0.0099784
0.00997857
0.00997871
0.00997882
0.00997893
0.00997901
0.01
0.01
0.01
0.01
0.01
0.01
0.01
0.01
0.01
0.01
0.01
0.01
0.01
0.01
0.01
0.01
0.01
0.01
0.00999999
0.00999997
0.00999994
0.00999987
0.00999972
0.00999943
0.00999892
0.00999803
0.00999658
0.00999437
0.00999116
0.00998679
0.00998114
0.00997426
0.00996638
0.00995788
0.00994931
0.00994128
0.00993437
0.00992891
0.00992436
0.00992081
0.0099183
0.00991686
0.00991642
0.0099169
0.00991817
0.00992011
0.00992257
0.00992541
0.0099285
0.00993174
0.00993503
0.00993829
0.00994146
0.0099445
0.00994737
0.00995006
0.00995254
0.00995481
0.00995688
0.00995875
0.00996043
0.00996192
0.00996323
0.00996439
0.0099654
0.00996627
0.00996702
0.00996766
0.00996821
0.00996867
0.00996907
0.00996941
0.00996971
0.00996997
0.00997018
0.01
0.01
0.01
0.01
0.01
0.01
0.01
0.01
0.01
0.01
0.01
0.01
0.01
0.01
0.01
0.01
0.01
0.00999999
0.00999998
0.00999994
0.00999987
0.00999971
0.0099994
0.0099988
0.00999771
0.00999585
0.00999286
0.00998833
0.00998183
0.00997305
0.00996183
0.00994834
0.00993305
0.00991679
0.00990066
0.00988584
0.00987346
0.00986413
0.00985681
0.00985159
0.00984852
0.00984753
0.00984845
0.00985104
0.00985502
0.00986008
0.00986594
0.00987232
0.00987899
0.00988575
0.00989242
0.0098989
0.00990507
0.00991089
0.00991631
0.0099213
0.00992587
0.00993003
0.00993377
0.00993714
0.00994013
0.00994279
0.00994514
0.0099472
0.00994901
0.00995057
0.00995193
0.0099531
0.00995412
0.00995499
0.00995574
0.00995641
0.00995699
0.00995752
0.00995792
0.01
0.01
0.01
0.01
0.01
0.01
0.01
0.01
0.01
0.01
0.01
0.01
0.01
0.01
0.01
0.01
0.00999999
0.00999998
0.00999995
0.00999988
0.00999973
0.0099994
0.00999875
0.00999752
0.0099953
0.00999156
0.0099856
0.00997664
0.00996394
0.00994697
0.00992555
0.00990008
0.00987156
0.00984162
0.00981234
0.00978598
0.00976458
0.00974928
0.00973812
0.00973118
0.00972839
0.00972948
0.00973401
0.0097414
0.00975107
0.00976239
0.0097748
0.00978781
0.009801
0.00981403
0.00982664
0.00983863
0.0098499
0.00986036
0.00986998
0.00987875
0.0098867
0.00989385
0.00990026
0.00990597
0.00991103
0.00991551
0.00991945
0.0099229
0.00992592
0.00992855
0.00993084
0.00993282
0.00993453
0.00993602
0.00993732
0.00993847
0.00993949
0.0099404
0.00994111
0.01
0.01
0.01
0.01
0.01
0.01
0.01
0.01
0.01
0.01
0.01
0.01
0.01
0.01
0.01
0.00999999
0.00999998
0.00999996
0.0099999
0.00999976
0.00999945
0.0099988
0.0099975
0.00999506
0.00999071
0.00998343
0.00997195
0.00995491
0.00993104
0.00989953
0.00986027
0.00981412
0.00976308
0.00971015
0.00965907
0.00961388
0.00957826
0.00955421
0.00953826
0.00953034
0.00953006
0.00953666
0.00954908
0.00956617
0.00958671
0.00960957
0.00963373
0.00965832
0.00968266
0.00970622
0.00972861
0.00974959
0.00976902
0.00978683
0.00980303
0.00981765
0.00983078
0.00984251
0.00985293
0.00986216
0.00987031
0.00987748
0.00988377
0.00988927
0.00989407
0.00989825
0.00990188
0.00990503
0.00990777
0.00991016
0.00991225
0.0099141
0.00991575
0.00991721
0.00991836
0.01
0.01
0.01
0.01
0.01
0.01
0.01
0.01
0.01
0.01
0.01
0.01
0.01
0.01
0.01
0.00999999
0.00999997
0.00999992
0.0099998
0.00999953
0.00999893
0.00999767
0.00999516
0.00999048
0.00998225
0.0099686
0.00994733
0.00991614
0.00987308
0.009817
0.00974805
0.00966803
0.00958055
0.00949093
0.00940544
0.00933081
0.00927357
0.00923733
0.00921624
0.00920974
0.00921664
0.00923508
0.00926292
0.00929787
0.0093377
0.0093804
0.00942425
0.00946784
0.00951012
0.00955033
0.00958797
0.00962276
0.00965459
0.00968344
0.00970942
0.00973267
0.00975337
0.00977172
0.00978793
0.00980221
0.00981476
0.00982575
0.00983535
0.00984373
0.00985103
0.00985738
0.00986289
0.00986768
0.00987184
0.00987547
0.00987865
0.00988147
0.00988399
0.00988622
0.00988796
0.01
0.01
0.01
0.01
0.01
0.01
0.01
0.01
0.01
0.01
0.01
0.01
0.01
0.01
0.00999999
0.00999998
0.00999994
0.00999985
0.00999963
0.00999911
0.00999798
0.00999561
0.00999095
0.00998232
0.00996726
0.0099426
0.00990468
0.00984989
0.00977539
0.00967985
0.00956409
0.00943149
0.00928826
0.0091432
0.0090061
0.0088872
0.00879788
0.00874536
0.00872012
0.00872045
0.00874315
0.00878433
0.00883978
0.00890533
0.00897711
0.00905179
0.00912663
0.00919952
0.00926897
0.00933402
0.00939409
0.00944894
0.00949858
0.00954315
0.00958294
0.00961826
0.0096495
0.00967702
0.0097012
0.00972239
0.00974092
0.00975709
0.00977119
0.00978345
0.00979412
0.00980337
0.00981141
0.00981838
0.00982444
0.00982973
0.00983437
0.00983847
0.00984214
0.00984539
0.00984792
0.01
0.01
0.01
0.01
0.01
0.01
0.01
0.01
0.01
0.01
0.01
0.01
0.01
0.00999999
0.00999999
0.00999996
0.00999989
0.00999973
0.00999932
0.00999837
0.00999631
0.00999203
0.00998366
0.00996828
0.00994174
0.00989885
0.00983385
0.00974147
0.009618
0.00946242
0.00927693
0.00906726
0.00884338
0.00861937
0.00840922
0.00822572
0.00808867
0.00801455
0.00798874
0.00800663
0.00806035
0.00814192
0.00824359
0.00835824
0.00847963
0.00860262
0.0087232
0.0088385
0.00894664
0.00904653
0.00913768
0.00922004
0.00929388
0.00935965
0.00941793
0.00946933
0.00951452
0.00955412
0.00958875
0.00961898
0.00964531
0.00966822
0.00968814
0.00970543
0.00972043
0.00973344
0.00974471
0.0097545
0.009763
0.00977041
0.00977691
0.00978266
0.0097878
0.00979235
0.00979587
0.01
0.01
0.01
0.01
0.01
0.01
0.01
0.01
0.01
0.01
0.01
0.01
0.01
0.00999999
0.00999997
0.00999993
0.00999981
0.00999951
0.00999879
0.00999713
0.00999351
0.00998603
0.00997151
0.00994508
0.00990001
0.00982816
0.00972107
0.00957163
0.00937577
0.0091338
0.00885045
0.00853437
0.00820006
0.00787022
0.00756383
0.00728809
0.00707608
0.00697159
0.00695397
0.00701157
0.00712336
0.00727276
0.00744694
0.00763503
0.00782818
0.00801923
0.00820287
0.00837558
0.00853529
0.00868105
0.0088127
0.00893062
0.00903553
0.00912835
0.0092101
0.00928184
0.0093446
0.00939938
0.0094471
0.00948861
0.00952466
0.00955596
0.0095831
0.00960662
0.009627
0.00964465
0.00965993
0.00967318
0.00968469
0.00969471
0.00970351
0.00971128
0.00971822
0.00972435
0.00972911
0.01
0.01
0.01
0.01
0.01
0.01
0.01
0.01
0.01
0.01
0.01
0.01
0.00999999
0.00999998
0.00999996
0.00999988
0.00999968
0.00999917
0.00999794
0.00999511
0.00998896
0.00997635
0.00995204
0.00990821
0.0098344
0.00971852
0.00954889
0.00931692
0.00901951
0.00866023
0.00824798
0.00779367
0.00731477
0.00685017
0.00643167
0.00602702
0.00568008
0.00552907
0.00554098
0.00569286
0.00591201
0.00616591
0.00644329
0.0067316
0.0070203
0.00730028
0.00756489
0.00781014
0.00803418
0.00823659
0.00841786
0.00857909
0.00872167
0.00884718
0.00895721
0.00905339
0.00913723
0.00921017
0.00927353
0.0093285
0.00937615
0.00941743
0.00945317
0.0094841
0.00951086
0.00953402
0.00955405
0.00957141
0.00958648
0.0095996
0.0096111
0.00962126
0.00963032
0.00963832
0.00964451
0.01
0.01
0.01
0.01
0.01
0.01
0.01
0.01
0.01
0.01
0.01
0.01
0.00999999
0.00999998
0.00999993
0.0099998
0.00999947
0.00999863
0.0099966
0.00999195
0.00998188
0.00996133
0.00992205
0.00985191
0.00973534
0.00955527
0.00929675
0.00895099
0.00851823
0.00800846
0.0074375
0.00681528
0.00614959
0.00551026
0.00500561
0.00443688
0.00377138
0.00357944
0.00365715
0.00407156
0.0044723
0.00484404
0.00524729
0.00565876
0.006066
0.00645575
0.00681862
0.00715037
0.00745003
0.00771834
0.00795699
0.00816809
0.00835394
0.00851692
0.00865935
0.00878348
0.00889141
0.0089851
0.00906631
0.00913664
0.00919751
0.00925016
0.0092957
0.00933507
0.0093691
0.00939853
0.00942397
0.009446
0.00946511
0.00948174
0.00949631
0.00950917
0.00952062
0.00953072
0.00953853
0.01
0.01
0.01
0.01
0.01
0.01
0.01
0.01
0.01
0.01
0.01
0.01
0.00999999
0.00999996
0.00999989
0.00999969
0.00999916
0.00999782
0.00999459
0.00998721
0.00997128
0.00993896
0.00987764
0.00976931
0.00959166
0.00932184
0.00894235
0.00844667
0.00784177
0.00714823
0.0063951
0.00558806
0.00467442
0.00372046
0.00334808
0.00266431
0.000774973
0.000283377
0.000772715
0.00236971
0.00294359
0.00327617
0.00385335
0.00441275
0.0049714
0.00549913
0.00597943
0.00641056
0.00679502
0.00713629
0.007438
0.00770374
0.00793695
0.00814092
0.00831876
0.00847343
0.00860767
0.00872399
0.00882467
0.00891176
0.00898704
0.0090521
0.00910832
0.00915689
0.00919885
0.00923511
0.00926645
0.00929356
0.00931706
0.0093375
0.00935539
0.00937117
0.00938522
0.00939759
0.00940714
0.01
0.01
0.01
0.01
0.01
0.01
0.01
0.01
0.01
0.01
0.01
0.00999999
0.00999998
0.00999994
0.00999983
0.00999952
0.00999871
0.00999665
0.0099917
0.00998038
0.00995605
0.00990696
0.00981456
0.009653
0.00939158
0.00900128
0.00846381
0.00777864
0.00696275
0.00604922
0.00509514
0.00413478
0.00292061
0.000434632
0.000158328
0.000371469
0.000514804
0.000209161
0.000510594
0.000329525
0.000142029
0.000304642
0.00224246
0.00292636
0.00372558
0.00444604
0.00506634
0.00560762
0.00608343
0.00650226
0.00687064
0.007194
0.00747708
0.00772414
0.00793916
0.00812584
0.00828761
0.00842758
0.00854859
0.00865315
0.00874346
0.00882144
0.00888879
0.00894695
0.00899716
0.00904053
0.00907799
0.00911038
0.00913845
0.00916284
0.00918417
0.00920297
0.0092197
0.00923442
0.00924577
0.01
0.01
0.01
0.01
0.01
0.01
0.01
0.01
0.01
0.01
0.01
0.00999999
0.00999997
0.00999991
0.00999975
0.00999929
0.00999809
0.00999504
0.00998769
0.00997095
0.00993508
0.00986312
0.00972868
0.00949598
0.00912434
0.00857857
0.00784242
0.00692641
0.00585864
0.00466952
0.00344268
0.0025228
0.000255958
0.000325359
0.000105008
5.72242e-05
5.66662e-07
2.59652e-07
5.83746e-07
5.55925e-05
9.39229e-05
0.000233061
0.000161925
0.00028622
0.0023275
0.00333473
0.00409855
0.00475386
0.0053258
0.0058259
0.00626361
0.00664654
0.00698089
0.00727203
0.00752486
0.00774391
0.00793336
0.00809704
0.00823834
0.00836029
0.00846554
0.00855636
0.00863475
0.0087024
0.0087608
0.00881121
0.00885474
0.00889236
0.00892493
0.00895323
0.00897796
0.00899977
0.00901916
0.00903623
0.00904938
0.01
0.01
0.01
0.01
0.01
0.01
0.01
0.01
0.01
0.01
0.01
0.00999999
0.00999996
0.00999988
0.00999964
0.00999899
0.00999727
0.0099929
0.00998238
0.00995849
0.00990747
0.00980567
0.00961692
0.00929331
0.00878266
0.00804376
0.00706557
0.00587692
0.00452106
0.00297161
0.000279382
0.000914041
0.000137978
2.53716e-07
5.09688e-08
5.17747e-09
1.75157e-10
1.35491e-10
1.76399e-10
5.70811e-09
5.32871e-08
2.07635e-07
8.35708e-05
0.000217047
0.000191286
0.00226106
0.00305607
0.0038407
0.00452369
0.00511229
0.00562295
0.00606748
0.00645415
0.00678966
0.00708001
0.00733076
0.00754702
0.00773342
0.00789403
0.00803246
0.00815178
0.00825468
0.00834344
0.00842002
0.00848609
0.00854312
0.00859235
0.00863489
0.00867173
0.00870374
0.00873174
0.00875644
0.00877843
0.00879781
0.00881274
0.01
0.01
0.01
0.01
0.01
0.01
0.01
0.01
0.01
0.01
0.00999999
0.00999998
0.00999994
0.00999983
0.00999951
0.00999861
0.00999623
0.00999019
0.00997568
0.00994279
0.00987281
0.00973397
0.00947842
0.00904422
0.00836614
0.00739619
0.00612853
0.0046176
0.00296298
0.000206871
0.000202343
2.77013e-06
3.24628e-08
7.91147e-11
1.16796e-11
4.41079e-13
6.93068e-14
5.71268e-14
6.94201e-14
5.3209e-13
1.41164e-11
7.83747e-11
2.11447e-08
2.24244e-07
0.000135345
0.000478406
0.00171401
0.0028528
0.00368374
0.00436707
0.00495335
0.00546163
0.00590177
0.00628158
0.0066084
0.00688918
0.00713028
0.00733735
0.00751532
0.00766841
0.0078002
0.00791375
0.00801165
0.00809611
0.00816898
0.0082319
0.00828625
0.00833326
0.00837402
0.00840951
0.00844062
0.00846815
0.00849274
0.00851448
0.00853124
0.01
0.01
0.01
0.01
0.01
0.01
0.01
0.01
0.01
0.01
0.00999999
0.00999998
0.00999993
0.00999978
0.00999935
0.00999815
0.00999498
0.00998694
0.00996764
0.00992399
0.00983153
0.00964916
0.00931598
0.00875477
0.00788611
0.00665222
0.00504
0.0031011
0.000229782
0.000177397
2.88007e-07
3.24731e-10
5.28706e-12
2.0955e-14
1.91676e-15
6.17422e-17
2.36272e-17
1.89306e-17
2.37564e-17
7.42545e-17
2.66693e-15
2.48012e-14
3.22671e-12
8.74377e-11
4.72941e-08
4.10484e-05
0.000714714
0.00198401
0.00284941
0.00359667
0.00425663
0.00483265
0.00532877
0.0057528
0.00611416
0.00642205
0.00668473
0.00690926
0.00710158
0.00726665
0.00740859
0.00753081
0.0076362
0.00772717
0.00780577
0.00787375
0.00793262
0.00798369
0.00802815
0.00806704
0.00810132
0.00813185
0.0081593
0.00818369
0.00820255
0.01
0.01
0.01
0.01
0.01
0.01
0.01
0.01
0.01
0.01
0.00999999
0.00999997
0.00999991
0.00999972
0.00999917
0.00999763
0.00999356
0.00998324
0.0099585
0.00990273
0.00978516
0.00955475
0.00913725
0.00844043
0.00737123
0.00586093
0.003866
0.000991471
0.000547033
6.14518e-07
2.14695e-10
1.07777e-13
6.8554e-16
4.68636e-18
2.62657e-19
1.46075e-20
6.69452e-21
5.14055e-21
6.76948e-21
1.72045e-20
4.15045e-19
6.58103e-18
4.11441e-16
2.67563e-14
1.07291e-11
1.12876e-08
7.84615e-05
0.000317126
0.00196068
0.00276354
0.00352347
0.00418556
0.00474423
0.0052119
0.00560391
0.00593395
0.00621318
0.00645056
0.00665321
0.00682685
0.0069761
0.00710471
0.0072158
0.00731193
0.00739529
0.00746771
0.00753078
0.00758587
0.00763421
0.00767688
0.00771488
0.00774907
0.0077801
0.00780789
0.00782945
0.01
0.01
0.01
0.01
0.01
0.01
0.01
0.01
0.01
0.01
0.00999999
0.00999996
0.00999989
0.00999965
0.00999897
0.00999707
0.00999203
0.00997927
0.00994875
0.00988019
0.00973645
0.00945687
0.00895513
0.00812678
0.00686877
0.00511369
0.00293916
0.000210498
0.000105905
2.11585e-08
2.70488e-12
3.02453e-16
1.11822e-19
9.11317e-22
3.47684e-23
3.74784e-24
1.62447e-24
1.19754e-24
1.65178e-24
4.47975e-24
6.03528e-23
1.49159e-21
5.68063e-20
7.93039e-18
6.81927e-15
2.06999e-11
6.63914e-08
0.000107063
0.000138612
0.00178211
0.00275735
0.00354538
0.00417151
0.00467641
0.00509024
0.00543395
0.00572247
0.0059667
0.00617486
0.00635328
0.00650693
0.0066398
0.00675509
0.00685548
0.00694317
0.00702002
0.00708763
0.00714738
0.00720048
0.00724801
0.00729093
0.00733008
0.00736603
0.00739848
0.00742373
0.01
0.01
0.01
0.01
0.01
0.01
0.01
0.01
0.01
0.01
0.00999999
0.00999996
0.00999986
0.00999958
0.00999877
0.00999652
0.00999051
0.00997532
0.0099391
0.00985807
0.00968923
0.00936376
0.0087866
0.00784717
0.00643411
0.00441037
0.000367327
0.000280514
2.00302e-07
6.23529e-11
1.62335e-14
3.54778e-18
6.7374e-22
2.66084e-25
5.19402e-27
8.86083e-28
3.51393e-28
2.51323e-28
3.58847e-28
1.09043e-27
9.41259e-27
3.002e-25
1.79823e-23
2.24081e-20
5.06222e-17
1.07007e-13
1.94848e-10
3.01251e-07
0.000180061
0.000246914
0.0020612
0.00298733
0.00365571
0.00417529
0.00459412
0.00493924
0.00522803
0.0054725
0.00568135
0.00586114
0.0060169
0.00615262
0.00627147
0.00637605
0.00646851
0.00655063
0.00662394
0.00668976
0.00674921
0.0068033
0.00685292
0.0068988
0.00694139
0.00698009
0.00701023
0.01
0.01
0.01
0.01
0.01
0.01
0.01
0.01
0.01
0.01
0.00999998
0.00999995
0.00999984
0.00999952
0.0099986
0.00999601
0.00998912
0.00997175
0.00993043
0.00983839
0.00964789
0.00928439
0.00864966
0.00764155
0.00618974
0.00429784
0.000197403
0.000134618
5.70017e-08
1.23547e-11
1.97245e-15
2.67169e-19
3.54521e-23
5.36428e-27
1.86873e-30
1.91226e-31
7.10558e-32
5.03446e-32
7.26818e-32
2.42551e-31
2.21912e-30
9.8313e-28
1.6516e-24
3.23315e-21
7.6644e-18
1.99077e-14
4.58844e-11
7.58627e-08
5.53453e-05
8.05868e-05
0.001828
0.00261874
0.00324391
0.00374132
0.00414524
0.00447954
0.00476063
0.00500004
0.00520616
0.00538525
0.0055421
0.00568042
0.00580317
0.00591276
0.00601113
0.00609992
0.00618051
0.00625405
0.00632157
0.00638393
0.00644189
0.00649608
0.00654673
0.00659292
0.00662887
0.01
0.01
0.01
0.01
0.01
0.01
0.01
0.01
0.01
0.00999999
0.00999998
0.00999995
0.00999983
0.00999948
0.00999845
0.0099956
0.00998802
0.00996894
0.00992365
0.0098232
0.00961656
0.00922593
0.00855354
0.00750924
0.00605759
0.0042627
0.000379994
0.000137108
1.46513e-08
1.27121e-12
1.33591e-16
2.40182e-20
5.78691e-24
1.38431e-27
3.04974e-31
1.00584e-34
1.42113e-35
1.02637e-35
1.45952e-35
2.83679e-34
4.47669e-31
7.7254e-28
1.19485e-24
1.66875e-21
2.30824e-18
4.32183e-15
1.29366e-11
3.98265e-08
6.90954e-05
0.000119855
0.00167556
0.00237061
0.00294068
0.00340405
0.003785
0.00410332
0.00437354
0.00460613
0.00480872
0.00498696
0.00514517
0.00528666
0.00541406
0.00552947
0.0056346
0.00573088
0.00581948
0.0059014
0.00597751
0.00604855
0.00611514
0.00617776
0.0062365
0.00629008
0.00633171
0.01
0.01
0.01
0.01
0.01
0.01
0.01
0.01
0.01
0.00999999
0.00999998
0.00999994
0.00999982
0.00999945
0.00999837
0.00999536
0.00998737
0.00996727
0.00991968
0.00981441
0.00959881
0.00919374
0.00850287
0.00744473
0.00600472
0.00427966
0.00072797
4.49341e-05
2.27168e-09
1.94719e-13
4.71588e-17
1.40173e-20
3.72822e-24
8.74474e-28
1.85485e-31
3.68236e-35
1.00809e-38
2.2831e-39
1.06859e-37
2.18764e-34
4.19291e-31
7.24146e-28
1.11365e-24
1.5054e-21
1.78238e-18
2.03759e-15
3.91572e-12
1.68446e-08
6.7255e-05
0.000172788
0.00160025
0.00223901
0.0027718
0.00321001
0.0035736
0.00388009
0.00414266
0.00437087
0.00457167
0.0047502
0.00491033
0.00505503
0.00518664
0.00530703
0.00541772
0.00551994
0.00561475
0.00570302
0.00578551
0.00586287
0.00593563
0.00600419
0.00606854
0.00612718
0.00617267
0.01
0.01
0.01
0.01
0.01
0.01
0.01
0.01
0.01
0.00999999
0.00999998
0.00999994
0.00999982
0.00999944
0.00999835
0.00999533
0.0099873
0.00996712
0.00991938
0.00981389
0.00959799
0.00919268
0.00850179
0.00744394
0.00600418
0.00427833
0.000714531
4.67611e-05
2.39473e-09
2.01204e-13
4.76321e-17
1.41066e-20
3.75282e-24
8.80852e-28
1.86942e-31
3.71185e-35
9.8786e-39
2.12367e-39
1.06635e-37
2.1874e-34
4.19252e-31
7.2409e-28
1.11358e-24
1.50536e-21
1.78252e-18
2.03884e-15
3.92299e-12
1.68742e-08
6.73026e-05
0.000172745
0.00160107
0.00224024
0.00277345
0.00321215
0.00357635
0.00388355
0.00414692
0.004376
0.00457772
0.00475719
0.00491827
0.00506393
0.00519648
0.00531778
0.00542934
0.00553241
0.00562801
0.00571703
0.00580023
0.00587824
0.00595161
0.00602073
0.00608559
0.00614469
0.00619054
0.01
0.01
0.01
0.01
0.01
0.01
0.01
0.01
0.01
0.00999999
0.00999998
0.00999994
0.00999982
0.00999946
0.00999841
0.0099955
0.00998778
0.00996839
0.00992254
0.00982113
0.00961318
0.0092212
0.00854815
0.00750468
0.00605496
0.00426033
0.000371263
0.000140309
1.561e-08
1.38824e-12
1.44307e-16
2.50039e-20
5.92133e-24
1.41211e-27
3.11264e-31
9.78609e-35
1.28332e-35
9.41843e-36
1.34688e-35
2.80677e-34
4.47547e-31
7.72405e-28
1.1948e-24
1.66936e-21
2.31218e-18
4.33941e-15
1.29931e-11
3.99274e-08
6.91156e-05
0.000119848
0.00167801
0.00237413
0.00294514
0.00340957
0.00379179
0.00411165
0.00438365
0.00461823
0.00482295
0.00500346
0.005164
0.00530787
0.00543766
0.00555544
0.0056629
0.00576144
0.00585224
0.00593627
0.00601439
0.00608733
0.00615572
0.00622002
0.00628033
0.00633532
0.00637806
0.01
0.01
0.01
0.01
0.01
0.01
0.01
0.01
0.01
0.01
0.00999998
0.00999995
0.00999984
0.0099995
0.00999853
0.00999584
0.00998872
0.00997084
0.00992854
0.00983483
0.00964193
0.00927576
0.00863933
0.00763213
0.00618399
0.00429441
0.000194683
0.000133284
5.8474e-08
1.30315e-11
2.12788e-15
2.92421e-19
3.87957e-23
5.76695e-27
1.81835e-30
1.71816e-31
6.39137e-32
4.58973e-32
6.68819e-32
2.28962e-31
2.1405e-30
9.81723e-28
1.6549e-24
3.24684e-21
7.70846e-18
2.00152e-14
4.60588e-11
7.59991e-08
5.54456e-05
8.06967e-05
0.00183211
0.00262439
0.00325062
0.00374913
0.00415442
0.00449047
0.00477364
0.00501546
0.00522426
0.00540624
0.00556614
0.00570762
0.00583361
0.00594646
0.0060481
0.00614013
0.00622389
0.00630054
0.00637106
0.00643632
0.00649706
0.00655387
0.006607
0.00665544
0.00669317
0.01
0.01
0.01
0.01
0.01
0.01
0.01
0.01
0.01
0.01
0.00999999
0.00999995
0.00999985
0.00999955
0.00999869
0.0099963
0.00998998
0.00997413
0.00993661
0.00985332
0.0096811
0.00935158
0.00877123
0.00783183
0.00642306
0.00440176
0.000384368
0.000292465
2.09246e-07
6.49211e-11
1.69999e-14
3.74614e-18
7.15858e-22
2.5585e-25
4.46668e-27
8.02155e-28
3.17351e-28
2.29403e-28
3.31372e-28
1.0332e-27
8.88835e-27
2.90123e-25
1.7877e-23
2.25539e-20
5.09839e-17
1.07788e-13
1.96402e-10
3.04581e-07
0.000182496
0.000250859
0.00206709
0.00299507