/*--------------------------------*- C++ -*----------------------------------*\
  =========                 |
  \\      /  F ield         | OpenFOAM: The Open Source CFD Toolbox
   \\    /   O peration     | Website:  https://openfoam.org
    \\  /    A nd           | Version:  7
     \\/     M anipulation  |
\*---------------------------------------------------------------------------*/
FoamFile
{
    version     2.0;
    format      ascii;
    class       volScalarField;
    location    "20";
    object      p;
}
// * * * * * * * * * * * * * * * * * * * * * * * * * * * * * * * * * * * * * //

dimensions      [0 2 -2 0 0 0 0];

internalField   nonuniform List<scalar> 
5625
(
0.00121357
0.000770463
0.00055786
0.000471375
0.000425965
0.000398748
0.000381651
0.000370145
0.000361817
0.000355415
0.000350226
0.000345809
0.000341872
0.000338211
0.000334678
0.000331162
0.000327576
0.000323849
0.000319923
0.000315752
0.000311295
0.000306517
0.00030139
0.000295891
0.000290004
0.000283714
0.000277015
0.000269907
0.000262395
0.00025449
0.000246212
0.000237585
0.000228641
0.000219419
0.000209962
0.000200321
0.000190546
0.000180696
0.000170826
0.000160994
0.000151256
0.000141666
0.000132274
0.000123125
0.000114258
0.000105708
9.75019e-05
8.96611e-05
8.22009e-05
7.51304e-05
6.84534e-05
6.21684e-05
5.62699e-05
5.07477e-05
4.55891e-05
4.07778e-05
3.62958e-05
3.2123e-05
2.82383e-05
2.46196e-05
2.12446e-05
1.8091e-05
1.5137e-05
1.23617e-05
9.74602e-06
7.27267e-06
4.92799e-06
2.7029e-06
5.95361e-07
-1.38444e-06
-3.19656e-06
-4.75635e-06
-6.01526e-06
-6.82338e-06
-4.61451e-06
0.000863941
0.000686224
0.000566838
0.000496929
0.000450718
0.000419262
0.000397697
0.000382411
0.000371107
0.000362397
0.000355408
0.000349566
0.000344481
0.000339881
0.00033557
0.000331402
0.000327265
0.000323071
0.000318749
0.000314244
0.000309508
0.000304503
0.000299198
0.000293567
0.000287591
0.000281258
0.00027456
0.000267496
0.00026007
0.000252293
0.000244181
0.000235758
0.000227053
0.0002181
0.000208939
0.000199613
0.00019017
0.000180659
0.000171132
0.00016164
0.000152234
0.00014296
0.000133865
0.000124989
0.000116368
0.000108035
0.000100015
9.2328e-05
8.49901e-05
7.80108e-05
7.13949e-05
6.5143e-05
5.9251e-05
5.3712e-05
4.8515e-05
4.36471e-05
3.90927e-05
3.4835e-05
3.08555e-05
2.71355e-05
2.36552e-05
2.03958e-05
1.73384e-05
1.44657e-05
1.1762e-05
9.21421e-06
6.81324e-06
4.55564e-06
2.44535e-06
4.97976e-07
-1.24058e-06
-2.67718e-06
-3.83214e-06
-4.9366e-06
-3.85419e-06
0.000655088
0.000599081
0.000539678
0.000491264
0.000453738
0.000425474
0.000404404
0.000388515
0.000376268
0.000366576
0.000358676
0.000352026
0.000346237
0.00034103
0.000336194
0.000331573
0.000327045
0.000322515
0.000317906
0.000313156
0.000308215
0.000303043
0.000297605
0.000291877
0.000285838
0.000279475
0.000272779
0.000265748
0.000258387
0.000250704
0.000242716
0.000234443
0.000225912
0.000217155
0.000208208
0.000199111
0.000189908
0.000180644
0.000171366
0.000162122
0.000152957
0.000143915
0.000135038
0.000126365
0.000117929
0.00010976
0.000101882
9.43155e-05
8.70752e-05
8.01711e-05
7.3609e-05
6.739e-05
6.1512e-05
5.59689e-05
5.07522e-05
4.58504e-05
4.12503e-05
3.69368e-05
3.2894e-05
2.91047e-05
2.55519e-05
2.22186e-05
1.90883e-05
1.61458e-05
1.33777e-05
1.0773e-05
8.32479e-06
6.03106e-06
3.89604e-06
1.93159e-06
1.75917e-07
-1.2886e-06
-2.55131e-06
-4.10655e-06
-3.82672e-06
0.000546537
0.000532648
0.00050322
0.000472086
0.000444894
0.000422446
0.000404322
0.000389765
0.000377993
0.000368333
0.000360245
0.000353308
0.000347199
0.000341671
0.00033653
0.000331628
0.000326846
0.000322089
0.000317281
0.00031236
0.000307274
0.000301983
0.000296453
0.000290656
0.000284573
0.00027819
0.000271498
0.000264494
0.000257182
0.00024957
0.000241672
0.000233509
0.000225104
0.000216489
0.000207696
0.000198763
0.000189732
0.000180645
0.000171546
0.00016248
0.00015349
0.000144617
0.000135901
0.000127379
0.000119081
0.000111037
0.00010327
9.57988e-05
8.86381e-05
8.17982e-05
7.52846e-05
6.90995e-05
6.32411e-05
5.77047e-05
5.24825e-05
4.75647e-05
4.2939e-05
3.85922e-05
3.45093e-05
3.06753e-05
2.70743e-05
2.36909e-05
2.05099e-05
1.75175e-05
1.47013e-05
1.20513e-05
9.56048e-06
7.22595e-06
5.04879e-06
3.03387e-06
1.2079e-06
-3.61251e-07
-1.81475e-06
-3.79322e-06
-3.99887e-06
0.000482493
0.00048389
0.000470443
0.000451463
0.000432704
0.000415728
0.00040095
0.000388346
0.000377653
0.000368535
0.000360668
0.000353763
0.00034758
0.00034192
0.000336622
0.000331555
0.00032661
0.000321701
0.000316754
0.00031171
0.00030652
0.000301142
0.000295543
0.000289697
0.000283584
0.000277189
0.000270503
0.000263523
0.000256252
0.000248697
0.000240872
0.000232795
0.00022449
0.000215984
0.00020731
0.000198504
0.000189606
0.000180655
0.000171695
0.000162767
0.000153913
0.000145174
0.000136586
0.000128184
0.00012
0.000112059
0.000104385
9.69961e-05
8.99062e-05
8.31251e-05
7.66588e-05
7.05092e-05
6.46754e-05
5.91528e-05
5.39348e-05
4.90121e-05
4.43737e-05
4.00071e-05
3.58989e-05
3.20346e-05
2.83998e-05
2.498e-05
2.17611e-05
1.87299e-05
1.58747e-05
1.31852e-05
1.06538e-05
8.27577e-06
6.04843e-06
3.96964e-06
2.05661e-06
3.65897e-07
-1.27947e-06
-3.61028e-06
-4.15597e-06
0.000441462
0.000448155
0.000443234
0.000432242
0.000419737
0.000407307
0.000395672
0.000385157
0.000375806
0.00036752
0.000360141
0.0003535
0.000347436
0.000341805
0.000336479
0.000331353
0.000326333
0.000321342
0.000316315
0.000311197
0.000305941
0.000300508
0.000294867
0.000288991
0.000282861
0.000276462
0.000269786
0.000262828
0.00025559
0.00024808
0.00024031
0.000232296
0.000224063
0.000215636
0.000207047
0.000198331
0.000189526
0.000180672
0.00017181
0.000162981
0.000154226
0.000145584
0.000137091
0.000128781
0.000120684
0.000112825
0.000105227
9.79074e-05
9.08788e-05
8.41514e-05
7.77302e-05
7.16177e-05
6.58124e-05
6.03106e-05
5.51055e-05
5.01887e-05
4.55495e-05
4.11763e-05
3.70561e-05
3.31757e-05
2.95209e-05
2.60781e-05
2.28337e-05
1.97749e-05
1.68899e-05
1.41682e-05
1.16008e-05
9.18102e-06
6.90237e-06
4.75706e-06
2.755e-06
9.45534e-07
-8.71796e-07
-3.48495e-06
-4.27979e-06
0.00041379
0.00042179
0.000421212
0.000415248
0.000407186
0.000398331
0.000389415
0.000380882
0.000372933
0.00036561
0.000358877
0.000352656
0.000346855
0.000341378
0.000336134
0.00033104
0.000326023
0.000321017
0.000315966
0.00031082
0.000305538
0.000300082
0.000294424
0.000288538
0.000282405
0.000276011
0.000269347
0.000262409
0.000255198
0.000247719
0.000239986
0.000232014
0.000223825
0.000215446
0.000206907
0.000198243
0.000189492
0.000180693
0.000171888
0.000163117
0.000154422
0.000145841
0.00013741
0.000129162
0.000121127
0.000113329
0.000105789
9.85247e-05
9.15484e-05
8.48687e-05
7.84909e-05
7.24164e-05
6.6644e-05
6.11693e-05
5.5986e-05
5.10853e-05
4.64572e-05
4.20902e-05
3.79718e-05
3.40888e-05
3.0428e-05
2.69756e-05
2.37185e-05
2.06439e-05
1.77397e-05
1.49946e-05
1.23985e-05
9.94245e-06
7.61704e-06
5.40987e-06
3.32589e-06
1.41001e-06
-5.52258e-07
-3.38392e-06
-4.36389e-06
0.000394116
0.000402001
0.000403581
0.000400726
0.000395738
0.000389585
0.000382893
0.000376105
0.00036948
0.000363137
0.000357114
0.0003514
0.000345952
0.000340718
0.000335637
0.000330651
0.000325701
0.000320737
0.000315711
0.00031058
0.000305306
0.000299858
0.000294207
0.00028833
0.000282208
0.000275828
0.00026918
0.00026226
0.000255068
0.000247609
0.000239896
0.000231944
0.000223773
0.000215411
0.000206887
0.000198238
0.0001895
0.000180716
0.000171927
0.000163175
0.000154501
0.000145946
0.000137544
0.000129329
0.00012133
0.000113571
0.000106073
9.8852e-05
9.19189e-05
8.52823e-05
7.8946e-05
7.29113e-05
6.71757e-05
6.1735e-05
5.65818e-05
5.17078e-05
4.71023e-05
4.2754e-05
3.86504e-05
3.47786e-05
3.11251e-05
2.76765e-05
2.44195e-05
2.13412e-05
1.84289e-05
1.56708e-05
1.30553e-05
1.05718e-05
8.20838e-06
5.9495e-06
3.79665e-06
1.79234e-06
-2.85503e-07
-3.27846e-06
-4.3993e-06
0.000379491
0.000386852
0.000389487
0.000388545
0.000385654
0.000381495
0.000376558
0.000371238
0.000365793
0.000360376
0.000355065
0.000349889
0.000344845
0.00033991
0.00033505
0.000330225
0.000325395
0.00032052
0.00031556
0.000310481
0.000305248
0.000299835
0.000294214
0.000288363
0.000282266
0.000275908
0.00026928
0.000262377
0.000255198
0.000247749
0.000240039
0.000232084
0.000223906
0.00021553
0.000206987
0.000198314
0.000189551
0.000180739
0.000171924
0.00016315
0.000154459
0.000145893
0.000137488
0.000129278
0.000121291
0.000113552
0.000106079
9.88892e-05
9.19919e-05
8.53939e-05
7.90987e-05
7.31055e-05
6.74119e-05
6.20118e-05
5.68979e-05
5.20607e-05
4.74895e-05
4.31724e-05
3.90968e-05
3.52494e-05
3.16168e-05
2.81853e-05
2.49415e-05
2.1872e-05
1.89638e-05
1.6204e-05
1.35803e-05
1.10806e-05
8.69107e-06
6.39401e-06
4.18882e-06
2.11638e-06
-4.78819e-08
-3.15093e-06
-4.38058e-06
0.000368293
0.00037507
0.000378192
0.000378426
0.000376956
0.000374248
0.00037067
0.000366549
0.000362119
0.000357537
0.000352901
0.000348261
0.000343639
0.000339034
0.000334431
0.000329808
0.000325137
0.000320388
0.00031553
0.000310534
0.000305371
0.000300017
0.000294447
0.000288641
0.000282582
0.000276255
0.000269651
0.000262764
0.000255593
0.000248143
0.000240421
0.000232443
0.00022423
0.000215808
0.00020721
0.000198475
0.000189643
0.000180761
0.000171877
0.000163038
0.00015429
0.000145676
0.000137235
0.000129001
0.000121002
0.000113263
0.000105801
9.86319e-05
9.17634e-05
8.52014e-05
7.89471e-05
7.29991e-05
6.73526e-05
6.20012e-05
5.69359e-05
5.21466e-05
4.76215e-05
4.33485e-05
3.9314e-05
3.55047e-05
3.19067e-05
2.8506e-05
2.52887e-05
2.22412e-05
1.93498e-05
1.66011e-05
1.39819e-05
1.14789e-05
9.0771e-06
6.75753e-06
4.51816e-06
2.39863e-06
1.7567e-07
-2.99087e-06
-4.30473e-06
0.000359578
0.000365812
0.000369126
0.000370077
0.000369565
0.000367905
0.000365365
0.000362205
0.000358628
0.000354779
0.000350758
0.000346629
0.000342426
0.000338163
0.000333839
0.000329444
0.00032496
0.000320366
0.000315638
0.000310753
0.000305686
0.000300414
0.000294915
0.000289169
0.000283161
0.000276874
0.0002703
0.00026343
0.000256263
0.000248801
0.000241051
0.000233029
0.000224755
0.000216255
0.000207565
0.000198725
0.00018978
0.00018078
0.00017178
0.000162831
0.000153983
0.000145284
0.000136773
0.000128486
0.000120452
0.000112693
0.000105229
9.80712e-05
9.12267e-05
8.46988e-05
7.84875e-05
7.25888e-05
6.69968e-05
6.17026e-05
5.66965e-05
5.19666e-05
4.75005e-05
4.32845e-05
3.93052e-05
3.55479e-05
3.19985e-05
2.86425e-05
2.54657e-05
2.24538e-05
1.95929e-05
1.68688e-05
1.42678e-05
1.17757e-05
9.37681e-06
7.05146e-06
4.79677e-06
2.65093e-06
3.95446e-07
-2.79169e-06
-4.17012e-06
0.000352762
0.000358511
0.000361855
0.000363236
0.000363366
0.000362458
0.000360703
0.000358304
0.00035543
0.000352211
0.00034874
0.000345083
0.000341282
0.000337359
0.000333323
0.000329172
0.000324895
0.000320479
0.000315905
0.000311154
0.000306205
0.000301035
0.000295626
0.000289958
0.000284014
0.000277778
0.000271239
0.000264388
0.000257221
0.000249739
0.000241948
0.00023386
0.000225497
0.000216886
0.000208063
0.000199072
0.000189964
0.000180796
0.000171628
0.000162519
0.000153527
0.000144701
0.000136085
0.000127716
0.000119623
0.000111829
0.000104349
9.7195e-05
9.03708e-05
8.38779e-05
7.77129e-05
7.18701e-05
6.63406e-05
6.11143e-05
5.61788e-05
5.15213e-05
4.71274e-05
4.2983e-05
3.90729e-05
3.53823e-05
3.18961e-05
2.85994e-05
2.54773e-05
2.25154e-05
1.96989e-05
1.70137e-05
1.44452e-05
1.1979e-05
9.59891e-06
7.28507e-06
5.03395e-06
2.88203e-06
6.18541e-07
-2.54918e-06
-3.97594e-06
0.000347459
0.000352773
0.000356058
0.000357683
0.000358237
0.000357863
0.000356696
0.000354894
0.000352595
0.000349908
0.000346919
0.000343692
0.000340268
0.000336675
0.000332927
0.000329028
0.000324972
0.000320751
0.000316351
0.000311754
0.000306942
0.000301896
0.000296595
0.000291021
0.000285155
0.000278981
0.000272485
0.000265657
0.000258489
0.00025098
0.000243133
0.00023496
0.00022648
0.000217721
0.000208722
0.00019953
0.000190204
0.000180808
0.000171414
0.00016209
0.000152902
0.000143906
0.000135149
0.000126669
0.000118495
0.000110648
0.000103143
9.59865e-05
8.91821e-05
8.27265e-05
7.66141e-05
7.08353e-05
6.53793e-05
6.02326e-05
5.53814e-05
5.08101e-05
4.65035e-05
4.24454e-05
3.86199e-05
3.50111e-05
3.16033e-05
2.83808e-05
2.53284e-05
2.24309e-05
1.96738e-05
1.7042e-05
1.45209e-05
1.2096e-05
9.75085e-06
7.46582e-06
5.23689e-06
3.09827e-06
8.4981e-07
-2.26103e-06
-3.72234e-06
0.000343403
0.000348318
0.000351488
0.000353234
0.000354059
0.00035406
0.00035333
0.000351992
0.000350157
0.000347917
0.000345347
0.000342504
0.000339429
0.000336152
0.000332687
0.000329042
0.000325217
0.000321204
0.000316993
0.000312568
0.000307913
0.000303008
0.000297835
0.000292372
0.0002866
0.000280502
0.00027406
0.00026726
0.000260092
0.000252551
0.000244637
0.000236359
0.000227733
0.000218788
0.000209565
0.000200116
0.000190507
0.000180816
0.000171127
0.000161526
0.000152087
0.000142875
0.000133938
0.000125316
0.000117039
0.000109125
0.000101585
9.44254e-05
8.76422e-05
8.12303e-05
7.51789e-05
6.94759e-05
6.4106e-05
5.90536e-05
5.43014e-05
4.98325e-05
4.56289e-05
4.16735e-05
3.79488e-05
3.44379e-05
3.11241e-05
2.79914e-05
2.50238e-05
2.2206e-05
1.95229e-05
1.69596e-05
1.45012e-05
1.2133e-05
9.83893e-06
7.59978e-06
5.4111e-06
3.30426e-06
1.09243e-06
-1.92622e-06
-3.41009e-06
0.000340399
0.000344938
0.000347955
0.000349739
0.000350726
0.000350981
0.000350572
0.000349592
0.00034813
0.000346263
0.000344053
0.000341552
0.000338798
0.000335819
0.00033263
0.00032924
0.000325651
0.000321857
0.000317848
0.000313612
0.000309132
0.000304388
0.000299361
0.000294029
0.000288369
0.000282362
0.000275987
0.000269225
0.000262063
0.000254489
0.000246499
0.000238097
0.000229297
0.000220125
0.000210626
0.000200855
0.000190889
0.00018082
0.000170756
0.000160802
0.000151051
0.00014157
0.000132414
0.000123622
0.000115221
0.000107227
9.96495e-05
9.24858e-05
8.57303e-05
7.93711e-05
7.33937e-05
6.77804e-05
6.2513e-05
5.75715e-05
5.29362e-05
4.8587e-05
4.45044e-05
4.0669e-05
3.70623e-05
3.3666e-05
3.04628e-05
2.74358e-05
2.45688e-05
2.1846e-05
1.92522e-05
1.67723e-05
1.43917e-05
1.20957e-05
9.86857e-06
7.69192e-06
5.56083e-06
3.50327e-06
1.3483e-06
-1.54498e-06
-3.04089e-06
0.000338298
0.000342473
0.00034531
0.000347071
0.000348141
0.000348563
0.000348383
0.000347677
0.000346513
0.000344954
0.000343055
0.000340857
0.000338397
0.000335697
0.000332775
0.000329638
0.000326289
0.000322723
0.000318931
0.0003149
0.000310613
0.00030605
0.00030119
0.000296009
0.000290483
0.000284587
0.000278296
0.000271587
0.00026444
0.000256836
0.000248766
0.000240225
0.000231223
0.000221783
0.000211948
0.000201783
0.000191368
0.00018082
0.000170279
0.000159886
0.000149751
0.000139948
0.000130531
0.00012154
0.000112998
0.000104917
9.72993e-05
9.01384e-05
8.34206e-05
7.71289e-05
7.12418e-05
6.57372e-05
6.05913e-05
5.57808e-05
5.1282e-05
4.70726e-05
4.31301e-05
3.94339e-05
3.59634e-05
3.26995e-05
2.9624e-05
2.67193e-05
2.39688e-05
2.13565e-05
1.88672e-05
1.64858e-05
1.41979e-05
1.19892e-05
9.84451e-06
7.74633e-06
5.68936e-06
3.69754e-06
1.61833e-06
-1.11845e-06
-2.61689e-06
0.000336979
0.000340795
0.000343432
0.000345126
0.000346218
0.000346739
0.00034672
0.000346219
0.000345292
0.000343989
0.000342356
0.000340428
0.000338235
0.0003358
0.000333136
0.00033025
0.000327145
0.000323815
0.000320252
0.000316442
0.000312368
0.000308008
0.000303338
0.000298333
0.000292965
0.000287203
0.00028102
0.000274384
0.000267268
0.000259645
0.000251497
0.000242808
0.000233579
0.000223826
0.000213594
0.000202948
0.000191974
0.000180815
0.000169669
0.000158729
0.000148131
0.000137949
0.000128232
0.000119016
0.000110319
0.000102147
9.44949e-05
8.73479e-05
8.06851e-05
7.44802e-05
6.87059e-05
6.33325e-05
5.83318e-05
5.36752e-05
4.93361e-05
4.52882e-05
4.15075e-05
3.79705e-05
3.46558e-05
3.1543e-05
2.86128e-05
2.58473e-05
2.32295e-05
2.07435e-05
1.83738e-05
1.61057e-05
1.39252e-05
1.18185e-05
9.77097e-06
7.76648e-06
5.79918e-06
3.88849e-06
1.90259e-06
-6.48771e-07
-2.14125e-06
0.000336343
0.0003398
0.000342218
0.000343811
0.000344881
0.000345449
0.000345536
0.000345187
0.000344447
0.000343357
0.000341952
0.000340264
0.000338318
0.000336132
0.000333718
0.000331082
0.000328224
0.00032514
0.00032182
0.000318248
0.000314407
0.000310272
0.000305819
0.000301018
0.000295836
0.00029024
0.000284193
0.000277658
0.000270598
0.000262977
0.000254762
0.000245926
0.00023645
0.000226341
0.000215645
0.000204424
0.000192752
0.000180806
0.000168878
0.00015726
0.000146115
0.000135497
0.000125444
0.000115982
0.000107122
9.88622e-05
9.11882e-05
8.40755e-05
7.74911e-05
7.14006e-05
6.57664e-05
6.05531e-05
5.5725e-05
5.12497e-05
4.70956e-05
4.32341e-05
3.9638e-05
3.62825e-05
3.31442e-05
3.02017e-05
2.74352e-05
2.48262e-05
2.23575e-05
2.00131e-05
1.7778e-05
1.56378e-05
1.35789e-05
1.15881e-05
9.65187e-06
7.75533e-06
5.89222e-06
4.07688e-06
2.20046e-06
-1.38791e-07
-1.61748e-06
0.000336302
0.000339395
0.00034158
0.000343047
0.00034406
0.000344634
0.000344784
0.000344545
0.000343952
0.000343038
0.000341832
0.00034036
0.000338641
0.000336692
0.000334521
0.000332134
0.000329529
0.0003267
0.000323636
0.000320322
0.000316736
0.000312854
0.000308647
0.000304081
0.000299121
0.000293726
0.000287853
0.000281456
0.000274489
0.000266901
0.000258645
0.000249675
0.000239944
0.000229437
0.000218211
0.000206319
0.000193775
0.000180789
0.000167834
0.000155372
0.000143598
0.000132497
0.000122078
0.000112357
0.000103334
9.49987e-05
8.73262e-05
8.02763e-05
7.38047e-05
6.78629e-05
6.24049e-05
5.73852e-05
5.2763e-05
4.84993e-05
4.45596e-05
4.09113e-05
3.75252e-05
3.43743e-05
3.14342e-05
2.86823e-05
2.60981e-05
2.36631e-05
2.13598e-05
1.91725e-05
1.70866e-05
1.50881e-05
1.31643e-05
1.13027e-05
9.49086e-06
7.71554e-06
5.96992e-06
4.26296e-06
2.51069e-06
4.0776e-07
-1.05019e-06
0.000336777
0.000339502
0.000341441
0.000342759
0.000343689
0.000344239
0.000344419
0.000344255
0.000343777
0.00034301
0.000341978
0.0003407
0.000339194
0.000337472
0.000335541
0.000333403
0.000331056
0.000328494
0.000325703
0.000322666
0.000319361
0.00031576
0.000311832
0.000307539
0.00030284
0.000297689
0.000292036
0.000285827
0.000279001
0.000271495
0.000263243
0.000254176
0.000244197
0.000233252
0.00022144
0.000208801
0.000195163
0.00018076
0.000166404
0.000152894
0.00014044
0.000128832
0.00011803
0.000108049
9.88716e-05
9.04837e-05
8.28468e-05
7.59032e-05
6.95884e-05
6.38414e-05
5.86022e-05
5.38177e-05
4.94386e-05
4.5422e-05
4.17284e-05
3.8323e-05
3.51738e-05
3.22524e-05
2.95331e-05
2.69925e-05
2.46098e-05
2.23662e-05
2.02445e-05
1.82293e-05
1.63066e-05
1.44631e-05
1.26871e-05
1.09669e-05
9.29162e-06
7.6495e-06
6.03346e-06
4.44652e-06
2.83157e-06
9.86513e-07
-4.44208e-07
0.000337696
0.000340047
0.000341729
0.000342884
0.000343709
0.00034421
0.000344393
0.00034428
0.000343891
0.000343248
0.000342368
0.000341269
0.000339963
0.00033846
0.000336765
0.000334879
0.000332799
0.000330515
0.000328013
0.000325277
0.000322279
0.000318992
0.00031538
0.000311402
0.000307011
0.000302156
0.000296779
0.000290817
0.000284199
0.000276842
0.000268664
0.000259572
0.000249386
0.00023796
0.000225543
0.000212194
0.000197203
0.000180708
0.000164289
0.000149493
0.000136432
0.000124356
0.000113178
0.000102953
9.36385e-05
8.52317e-05
7.76838e-05
7.09035e-05
6.4806e-05
5.93097e-05
5.43429e-05
4.98408e-05
4.57486e-05
4.20177e-05
3.86056e-05
3.54746e-05
3.25911e-05
2.99251e-05
2.745e-05
2.5142e-05
2.29799e-05
2.09451e-05
1.90208e-05
1.71922e-05
1.54459e-05
1.377e-05
1.21533e-05
1.05858e-05
9.05777e-06
7.5596e-06
6.08368e-06
4.62707e-06
3.16085e-06
1.59232e-06
1.94452e-07
0.00033899
0.000340962
0.000342378
0.000343357
0.000344062
0.000344496
0.000344662
0.000344578
0.000344258
0.00034372
0.000342978
0.000342044
0.000340929
0.00033964
0.00033818
0.000336549
0.000334743
0.000332751
0.000330559
0.000328146
0.000325487
0.000322549
0.000319294
0.000315677
0.000311647
0.000307147
0.000302111
0.000296471
0.000290143
0.000283025
0.000275027
0.000266055
0.000255764
0.00024377
0.000230746
0.000217086
0.000200545
0.00018062
0.000160822
0.000144566
0.000131335
0.000118901
0.000107372
9.69534e-05
8.75223e-05
7.91467e-05
7.17612e-05
6.52256e-05
5.94207e-05
5.42472e-05
4.96148e-05
4.54507e-05
4.16931e-05
3.82906e-05
3.51976e-05
3.23747e-05
2.97869e-05
2.74032e-05
2.51964e-05
2.31423e-05
2.122e-05
1.94109e-05
1.76992e-05
1.60708e-05
1.45135e-05
1.30162e-05
1.15695e-05
1.01645e-05
8.79321e-06
7.44812e-06
6.12143e-06
4.80378e-06
3.49599e-06
2.2195e-06
8.59672e-07
0.000340593
0.000342182
0.000343327
0.00034412
0.000344693
0.000345046
0.000345181
0.000345109
0.000344843
0.000344395
0.000343777
0.000342998
0.000342067
0.000340988
0.000339764
0.000338394
0.000336871
0.000335186
0.000333323
0.000331261
0.000328972
0.000326422
0.00032357
0.000320367
0.000316757
0.000312677
0.000308056
0.000302822
0.000296884
0.000290116
0.000282444
0.000273869
0.000263725
0.000250843
0.000236894
0.000223799
0.000205441
0.00018047
0.000155697
0.000137744
0.000125287
0.000112416
0.000100491
8.99277e-05
8.03783e-05
7.21027e-05
6.49977e-05
5.88147e-05
5.34033e-05
4.86381e-05
4.44142e-05
4.06487e-05
3.72785e-05
3.42494e-05
3.15153e-05
2.90355e-05
2.67744e-05
2.47006e-05
2.27861e-05
2.10074e-05
1.93434e-05
1.77766e-05
1.62919e-05
1.48764e-05
1.3519e-05
1.22106e-05
1.09429e-05
9.70875e-06
8.50196e-06
7.31755e-06
6.14734e-06
4.97573e-06
3.83402e-06
2.86166e-06
1.54413e-06
0.00034244
0.000343645
0.000344515
0.000345118
0.000345551
0.000345813
0.000345904
0.000345833
0.000345609
0.00034524
0.000344736
0.000344105
0.000343352
0.000342481
0.000341494
0.000340389
0.000339161
0.000337798
0.000336286
0.000334602
0.000332718
0.000330598
0.000328199
0.000325466
0.00032234
0.000318752
0.000314625
0.000309888
0.000304452
0.000298146
0.000290921
0.000283131
0.000273531
0.000258772
0.000243927
0.000233087
0.000210337
0.000180177
0.000150277
0.000128167
0.000118263
0.000105373
9.27638e-05
8.18716e-05
7.20106e-05
6.39369e-05
5.73036e-05
5.1628e-05
4.67332e-05
4.24821e-05
3.87475e-05
3.54469e-05
3.2518e-05
2.99089e-05
2.75741e-05
2.54731e-05
2.35704e-05
2.18338e-05
2.02362e-05
1.87535e-05
1.73662e-05
1.6057e-05
1.48126e-05
1.36212e-05
1.24738e-05
1.13625e-05
1.02813e-05
9.22462e-06
8.18853e-06
7.17042e-06
6.16223e-06
5.14177e-06
4.17182e-06
3.512e-06
2.24057e-06
0.000344468
0.000345291
0.000345886
0.000346295
0.000346583
0.000346748
0.000346788
0.000346709
0.000346518
0.00034622
0.000345822
0.000345331
0.000344752
0.000344088
0.00034334
0.000342507
0.000341583
0.000340559
0.000339419
0.000338143
0.0003367
0.000335055
0.000333161
0.00033096
0.000328389
0.000325369
0.00032182
0.000317682
0.000312893
0.000307158
0.000300362
0.00029382
0.000285364
0.000265359
0.000255144
0.000258111
0.000232307
0.000179522
0.000127712
0.000102617
0.000106466
9.90139e-05
8.41232e-05
7.31349e-05
6.23062e-05
5.44913e-05
4.86238e-05
4.3641e-05
3.94152e-05
3.57962e-05
3.26387e-05
2.98675e-05
2.74333e-05
2.529e-05
2.33945e-05
2.17083e-05
2.01951e-05
1.88237e-05
1.75664e-05
1.64004e-05
1.53064e-05
1.42694e-05
1.32768e-05
1.23195e-05
1.13899e-05
1.04826e-05
9.59336e-06
8.71901e-06
7.85764e-06
7.00964e-06
6.1668e-06
5.30082e-06
4.50593e-06
4.16316e-06
2.94054e-06
0.000346614
0.000347062
0.000347384
0.0003476
0.000347742
0.000347806
0.00034779
0.000347697
0.000347532
0.000347298
0.000347
0.000346645
0.000346237
0.000345778
0.000345271
0.000344715
0.000344105
0.000343434
0.000342689
0.000341849
0.000340886
0.000339763
0.000338431
0.000336829
0.000334886
0.000332515
0.00032962
0.000326176
0.00032222
0.000317194
0.000310858
0.000308412
0.000306824
0.00027596
0.000253415
0.000310873
0.000372689
0.000177805
-9.92731e-06
4.91325e-05
0.00010524
8.75404e-05
6.78608e-05
6.43052e-05
5.10025e-05
4.35169e-05
3.88946e-05
3.48377e-05
3.14673e-05
2.86253e-05
2.61297e-05
2.39464e-05
2.2055e-05
2.04194e-05
1.90022e-05
1.77652e-05
1.66733e-05
1.5694e-05
1.48005e-05
1.39701e-05
1.31856e-05
1.2433e-05
1.17026e-05
1.09869e-05
1.02813e-05
9.58243e-06
8.88875e-06
8.19919e-06
7.51465e-06
6.8382e-06
6.16208e-06
5.45164e-06
4.83291e-06
4.80752e-06
3.63588e-06
0.00034882
0.0003489
0.000348956
0.000348983
0.00034898
0.000348942
0.000348868
0.000348757
0.000348613
0.000348437
0.000348235
0.000348011
0.00034777
0.000347514
0.000347249
0.000346974
0.000346687
0.000346384
0.000346053
0.000345678
0.000345233
0.000344682
0.000343973
0.000343042
0.000341809
0.000340166
0.000337969
0.000335201
0.000332051
0.000327206
0.000319808
0.000329492
0.000355349
0.000363166
0.000115285
0.000234951
0.000305243
0.000181929
5.88918e-05
0.000122755
0.00023409
1.38846e-05
4.82164e-05
5.31236e-05
3.37501e-05
2.94221e-05
2.7902e-05
2.52136e-05
2.29731e-05
2.10672e-05
1.92953e-05
1.77356e-05
1.6421e-05
1.53296e-05
1.44257e-05
1.3673e-05
1.30329e-05
1.24731e-05
1.19653e-05
1.1489e-05
1.10275e-05
1.05703e-05
1.01095e-05
9.64119e-06
9.16296e-06
8.67487e-06
8.17768e-06
7.67335e-06
7.16517e-06
6.6596e-06
6.14905e-06
5.59322e-06
5.14907e-06
5.43711e-06
4.31738e-06
0.000351025
0.000350752
0.000350552
0.000350395
0.000350251
0.000350113
0.00034998
0.00034985
0.000349723
0.000349602
0.000349491
0.000349393
0.000349314
0.00034926
0.000349235
0.000349242
0.000349284
0.000349359
0.000349461
0.000349578
0.000349689
0.000349761
0.000349744
0.00034957
0.000349152
0.00034836
0.000346961
0.000344883
0.000342697
0.000337549
0.000320492
0.00032034
0.000353993
0.000228559
0.000116253
0.000750654
0.00151629
0.0016041
0.0016357
0.00113795
0.000389808
0.000120557
0.000182273
5.71956e-06
1.13523e-06
1.11392e-05
1.67329e-05
1.53607e-05
1.42997e-05
1.33596e-05
1.22592e-05
1.12985e-05
1.05736e-05
1.00523e-05
9.69683e-06
9.46227e-06
9.30685e-06
9.19273e-06
9.09291e-06
8.98636e-06
8.86031e-06
8.70609e-06
8.52026e-06
8.30155e-06
8.05177e-06
7.77366e-06
7.47158e-06
7.15e-06
6.81549e-06
6.47745e-06
6.12912e-06
5.72445e-06
5.45091e-06
6.04388e-06
4.97634e-06
0.000353173
0.000352566
0.000352123
0.000351791
0.000351511
0.000351278
0.000351088
0.000350937
0.000350826
0.000350756
0.00035073
0.000350754
0.000350832
0.000350974
0.000351185
0.000351474
0.000351846
0.000352306
0.000352855
0.000353486
0.000354188
0.000354934
0.00035568
0.000356355
0.000356868
0.000357095
0.000356741
0.000355824
0.000356923
0.00036057
0.000355103
0.000200163
0.000197518
0.00130785
0.000840955
0.000964651
0.00124153
0.00134353
0.00132745
0.00113829
0.000968115
0.00123628
0.00063089
0.000160907
-5.03315e-06
4.71391e-06
1.0191e-05
5.76566e-06
5.70635e-06
5.70749e-06
5.09829e-06
4.66575e-06
4.53144e-06
4.61188e-06
4.84238e-06
5.16741e-06
5.53049e-06
5.89098e-06
6.2189e-06
6.49706e-06
6.71475e-06
6.86876e-06
6.95906e-06
6.98959e-06
6.96551e-06
6.89397e-06
6.7823e-06
6.63856e-06
6.47206e-06
6.29584e-06
6.10365e-06
5.84454e-06
5.7348e-06
6.61971e-06
5.60329e-06
0.00035521
0.000354292
0.000353622
0.000353127
0.000352722
0.000352398
0.000352154
0.000351984
0.000351887
0.000351864
0.000351918
0.000352056
0.000352285
0.000352615
0.000353056
0.00035362
0.000354319
0.000355164
0.000356164
0.000357326
0.000358647
0.000360116
0.000361694
0.000363303
0.000364828
0.00036612
0.000366505
0.000364886
0.000365466
0.000368403
0.000280917
0.000100418
0.000532266
0.000938699
0.000951599
0.00102594
0.00114163
0.00120105
0.00119227
0.00111916
0.00105791
0.00108854
0.00101307
0.00129755
0.000452351
2.22578e-05
-2.76404e-06
-8.19974e-06
-3.56388e-06
-1.9492e-06
-2.21972e-06
-2.19457e-06
-1.7111e-06
-9.83788e-07
-1.10211e-07
8.23825e-07
1.74753e-06
2.61079e-06
3.38663e-06
4.05989e-06
4.62694e-06
5.08919e-06
5.45344e-06
5.72808e-06
5.9238e-06
6.05146e-06
6.12269e-06
6.14854e-06
6.14191e-06
6.1189e-06
6.07441e-06
5.95267e-06
5.99744e-06
7.1567e-06
6.18956e-06
0.000357087
0.000355884
0.000355008
0.000354364
0.000353844
0.000353437
0.000353143
0.000352955
0.000352871
0.000352891
0.00035302
0.000353265
0.000353635
0.000354142
0.0003548
0.000355627
0.000356641
0.000357863
0.000359311
0.000361007
0.000362968
0.000365205
0.000367705
0.000370416
0.000373301
0.000376423
0.000378198
0.000372185
0.000368161
0.00041922
0.00159787
0.000941498
0.000874121
0.000963082
0.00100081
0.00104586
0.00109802
0.00112678
0.00112144
0.00108817
0.00105583
0.00104693
0.00103496
0.00109371
0.00107477
0.00181831
-2.74745e-05
-1.2829e-05
-8.5497e-06
-8.16111e-06
-9.38055e-06
-9.22984e-06
-8.15336e-06
-6.7222e-06
-5.13318e-06
-3.52137e-06
-1.99056e-06
-5.93279e-07
6.45751e-07
1.7212e-06
2.63644e-06
3.40246e-06
4.03239e-06
4.54198e-06
4.94673e-06
5.26287e-06
5.50565e-06
5.69008e-06
5.83199e-06
5.95112e-06
6.04313e-06
6.04838e-06
6.23555e-06
7.64714e-06
6.72607e-06
0.000358756
0.000357301
0.000356241
0.000355466
0.000354843
0.000354363
0.000354025
0.000353821
0.000353748
0.000353807
0.000354004
0.000354345
0.000354843
0.000355512
0.000356371
0.000357443
0.000358752
0.000360329
0.000362207
0.000364423
0.000367018
0.000370036
0.000373517
0.000377532
0.00038235
0.000388622
0.000395344
0.000384727
0.0004668
0.00204048
0.00154811
0.0011936
0.00105964
0.0010387
0.00104268
0.00105868
0.00107781
0.00108659
0.00107855
0.00105626
0.00103031
0.00100839
0.000986114
0.00096757
0.000906477
0.000786521
-0.00020609
-1.08877e-05
-1.00045e-05
-1.22243e-05
-1.67113e-05
-1.67749e-05
-1.4927e-05
-1.26405e-05
-1.01998e-05
-7.81343e-06
-5.61527e-06
-3.65588e-06
-1.94242e-06
-4.66977e-07
7.88736e-07
1.84577e-06
2.7276e-06
3.45671e-06
4.05552e-06
4.54481e-06
4.94457e-06
5.273e-06
5.54954e-06
5.79682e-06
6.01181e-06
6.13117e-06
6.44629e-06
8.08387e-06
7.20487e-06
0.000360177
0.000358505
0.000357287
0.000356399
0.000355688
0.000355146
0.00035477
0.000354552
0.000354489
0.000354583
0.000354838
0.000355264
0.000355874
0.000356687
0.000357724
0.000359014
0.000360588
0.000362487
0.000364756
0.000367451
0.000370633
0.00037437
0.00037873
0.000383902
0.000389985
0.000394617
0.000399245
0.000459809
0.000807138
0.00138467
0.0013605
0.00122516
0.00113213
0.00108941
0.00107255
0.00106838
0.00106794
0.00106325
0.00104991
0.00102801
0.00100078
0.000970223
0.000933535
0.000883968
0.000797024
0.000632481
0.000260599
-0.000189228
-9.64492e-06
-1.55001e-05
-2.77985e-05
-2.6602e-05
-2.26118e-05
-1.88697e-05
-1.52829e-05
-1.19673e-05
-9.03494e-06
-6.49055e-06
-4.30567e-06
-2.44348e-06
-8.67326e-07
4.5967e-07
1.57111e-06
2.4987e-06
3.27083e-06