/*--------------------------------*- C++ -*----------------------------------*\
  =========                 |
  \\      /  F ield         | OpenFOAM: The Open Source CFD Toolbox
   \\    /   O peration     | Website:  https://openfoam.org
    \\  /    A nd           | Version:  7
     \\/     M anipulation  |
\*---------------------------------------------------------------------------*/
FoamFile
{
    version     2.0;
    format      ascii;
    class       surfaceScalarField;
    location    "20";
    object      phi;
}
// * * * * * * * * * * * * * * * * * * * * * * * * * * * * * * * * * * * * * //

dimensions      [0 3 -1 0 0 0 0];

internalField   nonuniform List<scalar> 
11100
(
1.93083e-13
7.35839e-14
1.32563e-13
6.052e-14
9.56265e-14
3.69363e-14
7.29021e-14
2.27244e-14
5.84277e-14
1.44744e-14
4.88764e-14
9.55137e-15
4.23378e-14
6.53857e-15
3.77185e-14
4.61931e-15
3.43858e-14
3.33264e-15
3.19602e-14
2.42564e-15
3.02024e-14
1.75784e-15
2.89542e-14
1.24815e-15
2.81066e-14
8.47621e-16
2.75812e-14
5.25407e-16
2.73199e-14
2.613e-16
2.72782e-14
4.16847e-17
2.74211e-14
-1.42863e-16
2.772e-14
-2.98905e-16
2.81511e-14
-4.31093e-16
2.86937e-14
-5.42635e-16
2.93295e-14
-6.35801e-16
3.00416e-14
-7.12047e-16
3.08139e-14
-7.72375e-16
3.16312e-14
-8.17303e-16
3.24784e-14
-8.47185e-16
3.33405e-14
-8.62093e-16
3.42027e-14
-8.62151e-16
3.505e-14
-8.47345e-16
3.58679e-14
-8.17889e-16
3.66419e-14
-7.73976e-16
3.73581e-14
-7.16171e-16
3.80032e-14
-6.45099e-16
3.8565e-14
-5.61862e-16
3.90327e-14
-4.67645e-16
3.93968e-14
-3.64146e-16
3.96499e-14
-2.53092e-16
3.97866e-14
-1.36676e-16
3.98036e-14
-1.69905e-17
3.97e-14
1.0354e-16
3.94773e-14
2.22769e-16
3.91389e-14
3.38379e-16
3.86904e-14
4.48507e-16
3.81391e-14
5.51253e-16
3.74938e-14
6.45294e-16
3.67645e-14
7.29337e-16
3.59618e-14
8.02709e-16
3.5097e-14
8.64767e-16
3.41816e-14
9.15459e-16
3.32269e-14
9.54723e-16
3.22438e-14
9.83011e-16
3.12431e-14
1.0007e-15
3.02345e-14
1.00861e-15
2.92271e-14
1.0074e-15
2.8229e-14
9.98091e-16
2.72475e-14
9.81521e-16
2.62887e-14
9.58791e-16
2.53579e-14
9.30817e-16
2.44592e-14
8.98714e-16
2.35958e-14
8.6342e-16
2.27697e-14
8.26037e-16
2.19822e-14
7.87522e-16
2.12332e-14
7.48988e-16
2.05218e-14
7.11464e-16
1.98456e-14
6.76166e-16
1.92013e-14
6.4434e-16
1.85837e-14
6.17545e-16
1.79861e-14
5.97613e-16
1.7399e-14
5.87067e-16
1.68095e-14
5.89488e-16
1.61991e-14
6.10457e-16
1.55409e-14
6.58193e-16
1.47945e-14
7.46366e-16
1.38871e-14
9.07463e-16
1.26894e-14
1.19763e-15
1.55336e-15
2.69392e-13
7.08589e-14
2.40837e-13
8.90746e-14
2.05481e-13
7.22928e-14
1.74454e-13
5.37511e-14
1.49814e-13
3.91139e-14
1.30925e-13
2.84405e-14
1.16604e-13
2.08596e-14
1.05774e-13
1.54496e-14
9.75984e-14
1.15082e-14
9.14617e-14
8.56236e-15
8.6916e-14
6.30352e-15
8.36342e-14
4.52994e-15
8.13739e-14
3.1079e-15
7.99522e-14
1.94712e-15
7.9228e-14
9.85481e-16
7.90902e-14
1.795e-16
7.9449e-14
-5.01627e-16
8.023e-14
-1.07991e-15
8.13699e-14
-1.57102e-15
8.28134e-14
-1.98612e-15
8.45106e-14
-2.33296e-15
8.64154e-14
-2.61683e-15
8.84841e-14
-2.84112e-15
9.06748e-14
-3.00797e-15
9.29461e-14
-3.11849e-15
9.52573e-14
-3.17335e-15
9.7568e-14
-3.17284e-15
9.98381e-14
-3.11741e-15
1.02028e-13
-3.00765e-15
1.04099e-13
-2.84482e-15
1.06013e-13
-2.63073e-15
1.07736e-13
-2.36823e-15
1.09236e-13
-2.06099e-15
1.10482e-13
-1.71387e-15
1.1145e-13
-1.33262e-15
1.12121e-13
-9.2403e-16
1.1248e-13
-4.9553e-16
1.12518e-13
-5.52351e-17
1.12233e-13
3.88659e-16
1.11628e-13
8.27819e-16
1.10712e-13
1.25446e-15
1.09499e-13
1.66122e-15
1.08009e-13
2.0418e-15
1.06263e-13
2.39074e-15
1.04289e-13
2.70389e-15
1.02113e-13
2.97809e-15
9.97666e-14
3.21153e-15
9.72788e-14
3.40326e-15
9.468e-14
3.55355e-15
9.19997e-14
3.66333e-15
8.92659e-14
3.73446e-15
8.65053e-14
3.7692e-15
8.37422e-14
3.77049e-15
8.09989e-14
3.74144e-15
7.82949e-14
3.68556e-15
7.56473e-14
3.60639e-15
7.30704e-14
3.50771e-15
7.05759e-14
3.3932e-15
6.81726e-14
3.26668e-15
6.58668e-14
3.13188e-15
6.36617e-14
2.99264e-15
6.15579e-14
2.85278e-15
5.9553e-14
2.71631e-15
5.76418e-14
2.58739e-15
5.58155e-14
2.47062e-15
5.40619e-14
2.37114e-15
5.23645e-14
2.29505e-15
5.07017e-14
2.24981e-15
4.90461e-14
2.24514e-15
4.73627e-14
2.29388e-15
4.56082e-14
2.41268e-15
4.37313e-14
2.62325e-15
4.16809e-14
2.95788e-15
3.94452e-14
3.43331e-15
3.88682e-15
2.79692e-13
5.78333e-14
2.75674e-13
9.30931e-14
2.57425e-13
9.05414e-14
2.34483e-13
7.66929e-14
2.1213e-13
6.14673e-14
1.92492e-13
4.80782e-14
1.76126e-13
3.72255e-14
1.62898e-13
2.86784e-14
1.52429e-13
2.1977e-14
1.44304e-13
1.66875e-14
1.38144e-13
1.24635e-14
1.33629e-13
9.04455e-15
1.30497e-13
6.23975e-15
1.28534e-13
3.90999e-15
1.27566e-13
1.95394e-15
1.27448e-13
2.97592e-16
1.28059e-13
-1.11326e-15
1.29298e-13
-2.31821e-15
1.31073e-13
-3.3461e-15
1.33304e-13
-4.21763e-15
1.35919e-13
-4.94739e-15
1.38847e-13
-5.54533e-15
1.42024e-13
-6.01798e-15
1.45385e-13
-6.36926e-15
1.48868e-13
-6.60145e-15
1.52411e-13
-6.71569e-15
1.55951e-13
-6.71277e-15
1.59427e-13
-6.59349e-15
1.62779e-13
-6.35941e-15
1.65947e-13
-6.01305e-15
1.68875e-13
-5.55859e-15
1.71508e-13
-5.00186e-15
1.73798e-13
-4.35092e-15
1.757e-13
-3.6158e-15
1.77176e-13
-2.80883e-15
1.78196e-13
-1.94408e-15
1.78738e-13
-1.03738e-15
1.78788e-13
-1.05477e-16
1.78343e-13
8.34152e-16
1.77406e-13
1.76434e-15
1.75992e-13
2.66844e-15
1.74122e-13
3.53134e-15
1.71825e-13
4.33946e-15
1.69134e-13
5.08162e-15
1.66089e-13
5.74873e-15
1.62733e-13
6.33437e-15
1.5911e-13
6.8343e-15
1.55266e-13
7.24675e-15
1.51248e-13
7.57182e-15
1.471e-13
7.81164e-15
1.42865e-13
7.96969e-15
1.38583e-13
8.05091e-15
1.34292e-13
8.06108e-15
1.30027e-13
8.00691e-15
1.25817e-13
7.89549e-15
1.21689e-13
7.73445e-15
1.17665e-13
7.53148e-15
1.13764e-13
7.29451e-15
1.09999e-13
7.03141e-15
1.06381e-13
6.75016e-15
1.02915e-13
6.45867e-15
9.96025e-14
6.16503e-15
9.64415e-14
5.87737e-15
9.34245e-14
5.60429e-15
9.05404e-14
5.35481e-15
8.77727e-14
5.13884e-15
8.51003e-14
4.96742e-15
8.24968e-14
4.85328e-15
7.99307e-14
4.81124e-15
7.73661e-14
4.85848e-15
7.47654e-14
5.0134e-15
7.20953e-14
5.2933e-15
6.93432e-14
5.71004e-15
6.65446e-14
6.23189e-15
6.65277e-15
2.78567e-13
4.59333e-14
2.84539e-13
8.71212e-14
2.79271e-13
9.58093e-14
2.66749e-13
8.92142e-14
2.51209e-13
7.70072e-14
2.35432e-13
6.38557e-14
2.20925e-13
5.17324e-14
2.08349e-13
4.12546e-14
1.97882e-13
3.24441e-14
1.89462e-13
2.51073e-14
1.82924e-13
1.90009e-14
1.78072e-13
1.38968e-14
1.74709e-13
9.60295e-15
1.72654e-13
5.96529e-15
1.71744e-13
2.86333e-15
1.71838e-13
2.04263e-16
1.72807e-13
-2.08258e-15
1.74539e-13
-4.05046e-15
1.76932e-13
-5.73892e-15
1.79891e-13
-7.17683e-15
1.83329e-13
-8.38465e-15
1.8716e-13
-9.37641e-15
1.91303e-13
-1.01611e-14
1.95678e-13
-1.07442e-14
2.00205e-13
-1.11286e-14
2.04805e-13
-1.13157e-14
2.09398e-13
-1.13064e-14
2.13907e-13
-1.1102e-14
2.18252e-13
-1.07048e-14
2.22358e-13
-1.01192e-14
2.26152e-13
-9.3519e-15
2.29563e-13
-8.41289e-15
2.32527e-13
-7.31545e-15
2.34988e-13
-6.0766e-15
2.36896e-13
-4.71679e-15
2.38212e-13
-3.25982e-15
2.38906e-13
-1.732e-15
2.38963e-13
-1.61683e-16
2.38375e-13
1.42208e-15
2.37149e-13
2.99021e-15
2.35302e-13
4.51506e-15
2.32863e-13
5.97098e-15
2.29867e-13
7.33552e-15
2.26359e-13
8.58959e-15
2.22389e-13
9.71822e-15
2.18013e-13
1.07103e-14
2.13288e-13
1.1559e-14
2.08274e-13
1.22609e-14
2.0303e-13
1.28165e-14
1.97613e-13
1.32287e-14
1.92078e-13
1.35038e-14
1.8648e-13
1.36495e-14
1.80865e-13
1.36756e-14
1.75279e-13
1.35932e-14
1.69761e-13
1.34141e-14
1.64344e-13
1.31509e-14
1.59059e-13
1.28166e-14
1.53929e-13
1.24242e-14
1.48974e-13
1.1987e-14
1.44206e-13
1.15181e-14
1.39634e-13
1.10308e-14
1.3526e-13
1.05382e-14
1.31084e-13
1.00536e-14
1.27098e-13
9.59063e-15
1.23289e-13
9.16351e-15
1.19641e-13
8.78704e-15
1.16131e-13
8.47711e-15
1.12734e-13
8.25066e-15
1.09419e-13
8.12574e-15
1.06157e-13
8.12043e-15
1.02921e-13
8.2502e-15
9.96913e-14
8.52264e-15
9.64725e-14
8.9289e-15
9.32949e-14
9.40945e-15
9.76696e-15
2.75754e-13
3.68462e-14
2.84829e-13
7.80456e-14
2.87116e-13
9.35229e-14
2.82903e-13
9.34269e-14
2.74469e-13
8.54414e-14
2.64049e-13
7.42757e-14
2.53281e-13
6.24999e-14
2.43185e-13
5.13505e-14
2.34311e-13
4.13183e-14
2.26903e-13
3.25153e-14
2.21023e-13
2.48805e-14
2.16633e-13
1.82867e-14
2.13644e-13
1.25928e-14
2.11942e-13
7.66671e-15
2.11411e-13
3.3947e-15
2.11932e-13
-3.17255e-16
2.13394e-13
-3.54445e-15
2.15689e-13
-6.34562e-15
2.18716e-13
-8.76554e-15
2.22377e-13
-1.08373e-14
2.26576e-13
-1.25845e-14
2.31223e-13
-1.4023e-14
2.36225e-13
-1.5163e-14
2.41491e-13
-1.601e-14
2.46929e-13
-1.65667e-14
2.52447e-13
-1.68339e-14
2.57953e-13
-1.68121e-14
2.63353e-13
-1.65024e-14
2.68556e-13
-1.59079e-14
2.73472e-13
-1.50344e-14
2.78011e-13
-1.38918e-14
2.82093e-13
-1.24945e-14
2.8564e-13
-1.0862e-14
2.88582e-13
-9.01927e-15
2.90862e-13
-6.9967e-15
2.92432e-13
-4.82937e-15
2.93256e-13
-2.55654e-15
2.93315e-13
-2.20127e-16
2.926e-13
2.13642e-15
2.9112e-13
4.47009e-15
2.88896e-13
6.73953e-15
2.8596e-13
8.9069e-15
2.82357e-13
1.09386e-14
2.7814e-13
1.28067e-14
2.7337e-13
1.44886e-14
2.68111e-13
1.59684e-14
2.62435e-13
1.72356e-14
2.5641e-13
1.82855e-14
2.50108e-13
1.91184e-14
2.43598e-13
1.97391e-14
2.36945e-13
2.01563e-14
2.30213e-13
2.03818e-14
2.23459e-13
2.04298e-14
2.16735e-13
2.03166e-14
2.1009e-13
2.00595e-14
2.03564e-13
1.96772e-14
1.97192e-13
1.91886e-14
1.91003e-13
1.86131e-14
1.8502e-13
1.79697e-14
1.7926e-13
1.7278e-14
1.73734e-13
1.65569e-14
1.68447e-13
1.58255e-14
1.63397e-13
1.51029e-14
1.5858e-13
1.44081e-14
1.53983e-13
1.37604e-14
1.49591e-13
1.31795e-14
1.45382e-13
1.26856e-14
1.41334e-13
1.22987e-14
1.37421e-13
1.20385e-14
1.3362e-13
1.19222e-14
1.29909e-13
1.19607e-14
1.26279e-13
1.2153e-14
1.22731e-13
1.24767e-14
1.19277e-13
1.28632e-14
1.31431e-14
2.7338e-13
3.01325e-14
2.82771e-13
6.86549e-14
2.889e-13
8.73935e-14
2.90308e-13
9.20189e-14
2.87708e-13
8.80414e-14
2.82477e-13
7.95075e-14
2.7594e-13
6.90362e-14
2.69124e-13
5.8167e-14
2.62723e-13
4.77197e-14
2.57162e-13
3.80759e-14
2.52673e-13
2.93692e-14
2.49358e-13
2.16025e-14
2.47233e-13
1.47175e-14
2.46267e-13
8.63221e-15
2.464e-13
3.26198e-15
2.47554e-13
-1.47122e-15
2.49644e-13
-5.63426e-15
2.5258e-13
-9.28187e-15
2.56271e-13
-1.24568e-14
2.60625e-13
-1.51913e-14
2.65549e-13
-1.75078e-14
2.70947e-13
-1.94215e-14
2.76725e-13
-2.09407e-14
2.82785e-13
-2.20697e-14
2.89027e-13
-2.28089e-14
2.9535e-13
-2.31576e-14
3.01653e-13
-2.31148e-14
3.07831e-13
-2.26806e-14
3.13781e-13
-2.18581e-14
3.19402e-13
-2.06545e-14
3.24592e-13
-1.90825e-14
3.29259e-13
-1.71612e-14
3.33314e-13
-1.49168e-14
3.36678e-13
-1.23832e-14
3.39283e-13
-9.60168e-15
3.41074e-13
-6.62064e-15
3.42011e-13
-3.49386e-15
3.4207e-13
-2.79377e-16
3.41244e-13
2.96303e-15
3.3954e-13
6.17373e-15
3.36984e-13
9.2959e-15
3.33614e-13
1.22772e-14
3.29481e-13
1.50717e-14
3.24646e-13
1.76408e-14
3.19181e-13
1.99542e-14
3.1316e-13
2.19898e-14
3.06661e-13
2.37337e-14
2.99767e-13
2.51796e-14
2.92557e-13
2.63282e-14
2.8511e-13
2.71861e-14
2.77501e-13
2.77653e-14
2.69801e-13
2.80819e-14
2.62076e-13
2.81554e-14
2.54384e-13
2.80078e-14
2.46781e-13
2.76631e-14
2.39312e-13
2.71463e-14
2.32017e-13
2.64831e-14
2.24931e-13
2.56998e-14
2.18078e-13
2.48223e-14
2.11479e-13
2.38767e-14
2.05148e-13
2.28884e-14
1.99091e-13
2.18828e-14
1.93309e-13
2.08848e-14
1.87797e-13
1.99192e-14
1.82548e-13
1.90103e-14
1.77545e-13
1.81825e-14
1.72771e-13
1.74593e-14
1.68206e-13
1.68635e-14
1.63829e-13
1.64155e-14
1.5962e-13
1.61313e-14
1.55562e-13
1.60184e-14
1.51645e-13
1.60703e-14
1.47862e-13
1.62591e-14
1.44207e-13
1.6519e-14
1.67139e-14
2.71741e-13
2.50578e-14
2.805e-13
5.98962e-14
2.88322e-13
7.95718e-14
2.93192e-13
8.71484e-14
2.94872e-13
8.63619e-14
2.9398e-13
8.03993e-14
2.91401e-13
7.16154e-14
2.87972e-13
6.15956e-14
2.84365e-13
5.13265e-14
2.81065e-13
4.1376e-14
2.78394e-13
3.204e-14
2.76549e-13
2.34479e-14
2.75633e-13
1.56333e-14
2.75687e-13
8.5788e-15
2.76705e-13
2.24321e-15
2.78656e-13
-3.42229e-15
2.81487e-13
-8.46527e-15
2.85133e-13
-1.29274e-14
2.89519e-13
-1.68425e-14
2.94563e-13
-2.0236e-14
3.00181e-13
-2.31254e-14
3.0628e-13
-2.55207e-14
3.12766e-13
-2.74266e-14
3.19539e-13
-2.88428e-14
3.26497e-13
-2.97664e-14
3.33532e-13
-3.0193e-14
3.40536e-13
-3.01188e-14
3.47397e-13
-2.95419e-14
3.54004e-13
-2.84644e-14
3.60243e-13
-2.68942e-14
3.66007e-13
-2.48463e-14
3.7119e-13
-2.23441e-14
3.75694e-13
-1.9421e-14
3.79432e-13
-1.61203e-14
3.82325e-13
-1.24954e-14
3.84314e-13
-8.609e-15
3.85351e-13
-4.53172e-15
3.85412e-13
-3.39483e-16
3.84486e-13
3.88891e-15
3.82584e-13
8.07528e-15
3.79735e-13
1.21448e-14
3.75983e-13
1.60292e-14
3.71386e-13
1.96685e-14
3.66014e-13
2.30127e-14
3.59946e-13
2.60228e-14
3.53265e-13
2.86704e-14
3.46061e-13
3.0938e-14
3.38422e-13
3.28181e-14
3.30439e-13
3.43117e-14
3.22197e-13
3.54281e-14
3.13779e-13
3.6183e-14
3.05264e-13
3.65974e-14
2.96723e-13
3.66967e-14
2.88221e-13
3.65095e-14
2.79818e-13
3.60665e-14
2.71564e-13
3.54002e-14
2.63503e-13
3.45437e-14
2.55673e-13
3.35303e-14
2.48101e-13
3.23935e-14
2.40812e-13
3.11662e-14
2.3382e-13
2.98808e-14
2.27133e-13
2.8569e-14
2.20756e-13
2.72619e-14
2.14686e-13
2.59898e-14
2.08914e-13
2.4782e-14
2.03429e-13
2.36672e-14
1.98216e-13
2.26722e-14
1.93258e-13
2.18221e-14
1.88535e-13
2.11381e-14
1.84031e-13
2.06357e-14
1.79728e-13
2.03209e-14
1.75613e-13
2.01858e-14
1.71669e-13
2.02028e-14
1.67873e-13
2.03155e-14
2.04213e-14
2.70666e-13
2.10589e-14
2.78587e-13
5.19744e-14
2.86977e-13
7.1182e-14
2.93837e-13
8.02886e-14
2.98451e-13
8.17479e-14
3.00906e-13
7.79446e-14
3.01676e-13
7.08453e-14
3.0135e-13
6.19211e-14
3.00484e-13
5.21928e-14
2.99534e-13
4.23256e-14
2.98848e-13
3.27268e-14
2.98667e-13
2.36282e-14
2.99153e-13
1.5148e-14
3.00397e-13
7.33441e-15
3.02444e-13
1.95948e-16
3.05302e-13
-6.2797e-15
3.0895e-13
-1.21132e-14
3.13349e-13
-1.73265e-14
3.18445e-13
-2.19384e-14
3.24171e-13
-2.59626e-14
3.30453e-13
-2.94068e-14
3.37205e-13
-3.22734e-14
3.44338e-13
-3.45595e-14
3.51754e-13
-3.62584e-14
3.59349e-13
-3.73612e-14
3.67014e-13
-3.78584e-14
3.74637e-13
-3.77415e-14
3.821e-13
-3.70052e-14
3.89285e-13
-3.56495e-14
3.96073e-13
-3.36817e-14
4.02345e-13
-3.11182e-14
4.07987e-13
-2.79867e-14
4.12893e-13
-2.43271e-14
4.16965e-13
-2.01925e-14
4.20119e-13
-1.56492e-14
4.22286e-13
-1.07759e-14
4.23416e-13
-5.66128e-15
4.23478e-13
-4.01897e-16
4.22465e-13
4.90239e-15
4.20388e-13
1.01521e-14
4.1728e-13
1.52525e-14
4.13192e-13
2.01174e-14
4.08189e-13
2.46715e-14
4.02349e-13
2.88527e-14
3.95759e-13
3.26127e-14
3.88513e-13
3.59169e-14
3.80706e-13
3.87444e-14
3.72438e-13
4.10866e-14
3.63804e-13
4.29459e-14
3.54897e-13
4.43343e-14
3.45808e-13
4.52722e-14
3.3662e-13
4.57859e-14
3.27409e-13
4.59076e-14
3.18245e-13
4.56727e-14
3.09192e-13
4.51198e-14
3.00304e-13
4.42887e-14
2.91627e-13
4.32205e-14
2.83201e-13
4.19563e-14
2.75057e-13
4.05371e-14
2.6722e-13
3.90031e-14
2.59707e-13
3.73937e-14
2.52529e-13
3.57471e-14
2.4569e-13
3.41006e-14
2.3919e-13
3.24898e-14
2.33023e-13
3.09492e-14
2.27179e-13
2.95113e-14
2.21645e-13
2.82064e-14
2.16405e-13
2.70618e-14
2.11443e-13
2.61002e-14
2.06741e-13
2.53377e-14
2.02281e-13
2.47811e-14
1.98043e-13
2.44241e-14
1.94002e-13
2.42438e-14
1.90121e-13
2.4196e-14
2.42103e-14
2.69953e-13
1.77726e-14
2.77088e-13
4.48395e-14
2.85499e-13
6.27711e-14
2.93416e-13
7.23715e-14
2.99943e-13
7.52207e-14
3.04841e-13
7.30465e-14
3.0827e-13
6.74164e-14
3.10582e-13
5.9609e-14
3.12184e-13
5.05912e-14
3.13457e-13
4.10523e-14
3.14725e-13
3.14595e-14
3.16238e-13
2.21148e-14
3.18182e-13
1.32038e-14
3.20684e-13
4.83306e-15
3.2382e-13
-2.9407e-15
3.27632e-13
-1.00912e-14
3.32127e-13
-1.66087e-14
3.37292e-13
-2.24911e-14
3.43091e-13
-2.77378e-14
3.49476e-13
-3.23471e-14
3.56382e-13
-3.63135e-14
3.63737e-13
-3.9628e-14
3.71455e-13
-4.22778e-14
3.79444e-13
-4.42473e-14
3.87603e-13
-4.55196e-14
3.95822e-13
-4.60777e-14
4.03987e-13
-4.5907e-14
4.11979e-13
-4.4997e-14
4.19674e-13
-4.3344e-14
4.26945e-13
-4.09534e-14
4.33669e-13
-3.7842e-14
4.39723e-13
-3.40405e-14
4.44991e-13
-2.9595e-14
4.49367e-13
-2.45684e-14
4.52758e-13
-1.90405e-14
4.55089e-13
-1.31067e-14
4.56304e-13
-6.87645e-15
4.56371e-13
-4.68652e-16
4.55281e-13
5.99263e-15
4.53048e-13
1.23842e-14
4.49712e-13
1.85891e-14
4.45328e-13
2.45012e-14
4.39971e-13
3.0029e-14
4.33726e-13
3.50975e-14
4.26689e-13
3.9649e-14
4.18963e-13
4.36433e-14
4.10651e-13
4.7056e-14
4.01859e-13
4.98786e-14
3.9269e-13
5.2115e-14
3.83243e-13
5.37813e-14
3.73613e-13
5.49027e-14
3.63886e-13
5.55121e-14
3.54146e-13
5.56485e-14
3.44463e-13
5.53553e-14
3.34904e-13
5.46787e-14
3.25526e-13
5.3667e-14
3.16377e-13
5.23692e-14
3.07499e-13
5.08345e-14
2.98925e-13
4.91116e-14
2.90679e-13
4.72483e-14
2.82782e-13
4.52909e-14
2.75245e-13
4.32843e-14
2.68074e-13
4.12717e-14
2.61269e-13
3.92943e-14
2.54827e-13
3.73913e-14
2.4874e-13
3.55992e-14
2.42994e-13
3.39518e-14
2.37577e-13
3.2479e-14
2.32471e-13
3.12057e-14
2.27659e-13
3.01499e-14
2.23119e-13
2.93212e-14
2.18826e-13
2.87174e-14
2.14747e-13
2.83225e-14
2.10837e-13
2.81059e-14
2.80271e-14
2.69464e-13
1.49748e-14
2.75924e-13
3.83797e-14
2.84105e-13
5.45907e-14
2.92508e-13
6.39686e-14
3.00216e-13
6.75121e-14
3.06817e-13
6.64457e-14
3.12255e-13
6.19787e-14
3.16689e-13
5.5175e-14
3.20381e-13
4.68989e-14
3.23621e-13
3.78124e-14
3.2668e-13
2.84e-14
3.29793e-13
1.90023e-14
3.33145e-13
9.85138e-15
3.36878e-13
1.10018e-15
3.4109e-13
-7.15274e-15
3.45844e-13
-1.48448e-14
3.5117e-13
-2.19354e-14
3.57076e-13
-2.83967e-14
3.63545e-13
-3.42069e-14
3.70544e-13
-3.93456e-14
3.78022e-13
-4.37918e-14
3.85917e-13
-4.75227e-14
3.94152e-13
-5.05133e-14
4.02641e-13
-5.27367e-14
4.11288e-13
-5.41659e-14
4.19985e-13
-5.47748e-14
4.28618e-13
-5.45405e-14
4.37067e-13
-5.34458e-14
4.45204e-13
-5.14814e-14
4.529e-13
-4.86493e-14
4.60023e-13
-4.49651e-14
4.66444e-13
-4.04612e-14
4.72038e-13
-3.5189e-14
4.7669e-13
-2.92207e-14
4.803e-13
-2.26497e-14
4.82783e-13
-1.55899e-14
4.84079e-13
-8.17252e-15
4.84153e-13
-5.42235e-16
4.82995e-13
7.14995e-15
4.80626e-13
1.47538e-14
4.77087e-13
2.21275e-14
4.72445e-13
2.91435e-14
4.66781e-13
3.56929e-14
4.60191e-13
4.16876e-14
4.52779e-13
4.70609e-14
4.44655e-13
5.1767e-14
4.35932e-13
5.57798e-14
4.2672e-13
5.90908e-14
4.17127e-13
6.17072e-14
4.0726e-13
6.36492e-14
3.97214e-13
6.49483e-14
3.87082e-13
6.56442e-14
3.76947e-13
6.57838e-14
3.66884e-13
6.54184e-14
3.56959e-13
6.46029e-14
3.47233e-13
6.33938e-14
3.37753e-13
6.18487e-14
3.28563e-13
6.00249e-14
3.19695e-13
5.7979e-14
3.11177e-13
5.57661e-14
3.03028e-13
5.34399e-14
2.95261e-13
5.10516e-14
2.87882e-13
4.86504e-14
2.80894e-13
4.62828e-14
2.74292e-13
4.39928e-14
2.68071e-13
4.18211e-14
2.62217e-13
3.98049e-14
2.56719e-13
3.79773e-14
2.51559e-13
3.6366e-14
2.46716e-13
3.49924e-14
2.42168e-13
3.38698e-14
2.37883e-13
3.30021e-14
2.33824e-13
3.23815e-14
2.29939e-13
3.19912e-14
3.18188e-14
2.69113e-13
1.25283e-14
2.75005e-13
3.24876e-14
2.82845e-13
4.67511e-14
2.91384e-13
5.5429e-14
2.99761e-13
5.91353e-14
3.07486e-13
5.87206e-14
3.1437e-13
5.50951e-14
3.20429e-13
4.91162e-14
3.25802e-13
4.15255e-14
3.30688e-13
3.29268e-14
3.35298e-13
2.37902e-14
3.39831e-13
1.44691e-14
3.4446e-13
5.2219e-15
3.49326e-13
-3.76599e-15
3.54536e-13
-1.23628e-14
3.60166e-13
-2.04746e-14
3.66263e-13
-2.80323e-14
3.72849e-13
-3.4983e-14
3.79925e-13
-4.12824e-14
3.8747e-13
-4.68908e-14
3.95449e-13
-5.17701e-14
4.03807e-13
-5.58817e-14
4.12481e-13
-5.91864e-14
4.21389e-13
-6.16446e-14
4.3044e-13
-6.32174e-14
4.39533e-13
-6.38677e-14
4.48555e-13
-6.35629e-14
4.57386e-13
-6.22768e-14
4.65898e-13
-5.99931e-14
4.73957e-13
-5.67081e-14
4.81426e-13
-5.24346e-14
4.8817e-13
-4.72049e-14
4.94055e-13
-4.10743e-14
4.98958e-13
-3.41234e-14
5.02768e-13
-2.64593e-14
5.05393e-13
-1.82147e-14
5.06766e-13
-9.54557e-15
5.06848e-13
-6.2482e-16
5.05633e-13
8.36541e-15
5.03142e-13
1.72443e-14
4.99427e-13
2.58422e-14
4.94562e-13
3.40085e-14
4.88639e-13
4.1616e-14
4.81763e-13
4.8564e-14
4.74047e-13
5.47771e-14
4.65608e-13
6.02056e-14
4.56566e-13
6.48221e-14
4.47036e-13
6.862e-14
4.37134e-13
7.161e-14
4.26965e-13
7.38183e-14
4.1663e-13
7.52828e-14
4.06223e-13
7.60513e-14
3.95828e-13
7.61785e-14
3.85522e-13
7.57248e-14
3.75371e-13
7.47535e-14
3.65435e-13
7.333e-14
3.55763e-13
7.15203e-14
3.46398e-13
6.93902e-14
3.37373e-13
6.70039e-14
3.28715e-13
6.44242e-14
3.20443e-13
6.17115e-14
3.12571e-13
5.89237e-14
3.05106e-13
5.61157e-14
2.98049e-13
5.33395e-14
2.91399e-13
5.06434e-14
2.85147e-13
4.80726e-14
2.79284e-13
4.5668e-14
2.73795e-13
4.34662e-14
2.68663e-13
4.14983e-14
2.63865e-13
3.97898e-14
2.59376e-13
3.83592e-14
2.55161e-13
3.72172e-14
2.51177e-13
3.63649e-14
2.4737e-13
3.57988e-14
3.55328e-14
2.68847e-13
1.03476e-14
2.74256e-13
2.70791e-14
2.81708e-13
3.9299e-14
2.90167e-13
4.69703e-14
2.98852e-13
5.04503e-14
3.07257e-13
5.03148e-14
3.15119e-13
4.72339e-14
3.22354e-13
4.18805e-14
3.29008e-13
3.48714e-14
3.35198e-13
2.6737e-14
3.41076e-13
1.79128e-14
3.468e-13
8.74491e-15
3.5252e-13
-4.98706e-16
3.58368e-13
-9.61337e-15
3.64448e-13
-1.84435e-14
3.70844e-13
-2.68701e-14
3.77611e-13
-3.47995e-14
3.84784e-13
-4.21555e-14
3.92374e-13
-4.88727e-14
4.00375e-13
-5.48917e-14
4.08761e-13
-6.01562e-14
4.17491e-13
-6.46114e-14
4.26507e-13
-6.82028e-14
4.35739e-13
-7.08766e-14
4.45102e-13
-7.25803e-14
4.54499e-13
-7.32649e-14
4.63822e-13
-7.2886e-14
4.72952e-13
-7.14072e-14
4.81762e-13
-6.88029e-14
4.90116e-13
-6.50621e-14
4.97874e-13
-6.01922e-14
5.04893e-13
-5.42236e-14
5.11032e-13
-4.72133e-14
5.16157e-13
-3.9249e-14
5.20148e-13
-3.04505e-14
5.22904e-13
-2.09705e-14
5.2435e-13
-1.09912e-14
5.24443e-13
-7.18075e-16
5.23177e-13
9.63111e-15
5.20582e-13
1.98401e-14
5.16716e-13
2.97081e-14
5.11665e-13
3.90595e-14
5.05531e-13
4.77494e-14
4.98431e-13
5.56646e-14
4.90485e-13
6.27233e-14
4.81818e-13
6.88724e-14
4.72555e-13
7.40854e-14
4.62816e-13
7.83583e-14
4.52719e-13
8.17076e-14
4.42372e-13
8.41653e-14
4.31877e-13
8.57775e-14
4.21328e-13
8.65999e-14
4.1081e-13
8.66965e-14
4.00399e-13
8.61362e-14
3.90161e-13
8.49916e-14
3.80154e-13
8.33367e-14
3.70428e-13
8.12464e-14
3.61024e-13
7.87944e-14
3.51975e-13
7.6053e-14
3.43307e-13
7.30922e-14
3.35039e-13
6.99794e-14
3.27184e-13
6.67786e-14
3.19749e-13
6.35506e-14
3.12736e-13
6.03524e-14
3.06143e-13
5.72372e-14
2.99961e-13
5.42541e-14
2.94181e-13
5.14483e-14
2.88787e-13
4.88598e-14
2.83762e-13
4.6524e-14
2.79081e-13
4.44709e-14
2.74715e-13
4.27248e-14
2.70629e-13
4.13037e-14
2.66776e-13
4.02177e-14
2.63098e-13
3.94762e-14
3.91178e-14
2.68635e-13
8.37941e-15
2.7362e-13
2.2094e-14
2.80664e-13
3.2255e-14
2.889e-13
3.87343e-14
2.97637e-13
4.17139e-14
3.06383e-13
4.15683e-14
3.14839e-13
3.87775e-14
3.22863e-13
3.38574e-14
3.30426e-13
2.73076e-14
3.37583e-13
1.958e-14
3.44432e-13
1.10644e-14
3.51091e-13
2.08596e-15
3.57683e-13
-7.09071e-15
3.64322e-13
-1.62529e-14
3.71109e-13
-2.52302e-14
3.78124e-13
-3.3885e-14
3.85429e-13
-4.21039e-14
3.93064e-13
-4.97905e-14
4.0105e-13
-5.68596e-14
4.09392e-13
-6.32331e-14
4.18073e-13
-6.88371e-14
4.27061e-13
-7.35999e-14
4.36309e-13
-7.7451e-14
4.45755e-13
-8.03218e-14
4.5532e-13
-8.21457e-14
4.64915e-13
-8.28599e-14
4.74437e-13
-8.24076e-14
4.8377e-13
-8.07405e-14
4.92789e-13
-7.78221e-14
5.01359e-13
-7.36318e-14
5.09336e-13
-6.81696e-14
5.16574e-13
-6.14607e-14
5.22922e-13
-5.35618e-14
5.28238e-13
-4.45649e-14
5.32389e-13
-3.46018e-14
5.35263e-13
-2.38445e-14
5.36776e-13
-1.25039e-14
5.3688e-13
-8.22465e-16
5.35571e-13
1.09399e-14
5.32886e-13
2.25254e-14
5.28896e-13
3.3698e-14
5.23699e-13
4.42564e-14
5.17411e-13
5.40382e-14
5.10155e-13
6.29204e-14
5.02062e-13
7.0816e-14
4.93263e-13
7.76716e-14
4.83886e-13
8.34625e-14
4.74054e-13
8.81898e-14
4.63886e-13
9.18755e-14
4.53491e-13
9.45599e-14
4.42972e-13
9.6297e-14
4.3242e-13
9.71519e-14
4.21919e-13
9.71972e-14
4.11544e-13
9.65114e-14
4.0136e-13
9.5176e-14
3.91422e-13
9.32741e-14
3.8178e-13
9.08887e-14
3.72472e-13
8.8102e-14
3.63531e-13
8.49939e-14
3.54982e-13
8.16417e-14
3.46842e-13
7.81193e-14
3.39124e-13
7.44969e-14
3.31833e-13
7.08409e-14
3.24973e-13
6.72133e-14
3.18538e-13
6.36718e-14
3.12522e-13
6.027e-14
3.06914e-13
5.70567e-14
3.01697e-13
5.40762e-14
2.96853e-13
5.13681e-14
2.92357e-13
4.89673e-14
2.88177e-13
4.69042e-14
2.84277e-13
4.52042e-14
2.80608e-13
4.38862e-14
2.77113e-13
4.29719e-14
4.25229e-14
2.68456e-13
6.59009e-15
2.73058e-13
1.74918e-14
2.79682e-13
2.56311e-14
2.87597e-13
3.08189e-14
2.96197e-13
3.31147e-14
3.05021e-13
3.27437e-14
3.13761e-13
3.00374e-14
3.22238e-13
2.53803e-14
3.30379e-13
1.91672e-14
3.38185e-13
1.17734e-14
3.45711e-13
3.53825e-15
3.5304e-13
-5.24249e-15
3.60266e-13
-1.43168e-14
3.67486e-13
-2.34727e-14
3.74788e-13
-3.25328e-14
3.82251e-13
-4.13471e-14
3.89934e-13
-4.9787e-14
3.97882e-13
-5.77393e-14
4.06124e-13
-6.51016e-14
4.1467e-13
-7.17786e-14
4.23512e-13
-7.76792e-14
4.32628e-13
-8.27154e-14
4.41977e-13
-8.68008e-14
4.51507e-13
-8.98514e-14
4.61147e-13
-9.17861e-14
4.70816e-13
-9.25282e-14
4.80415e-13
-9.20072e-14
4.89837e-13
-9.01619e-14
4.98958e-13
-8.69436e-14
5.07647e-13
-8.23202e-14
5.15759e-13
-7.62815e-14
5.23143e-13
-6.88452e-14
5.29645e-13
-6.00633e-14
5.35109e-13
-5.00297e-14
5.39393e-13
-3.88851e-14
5.42369e-13
-2.68203e-14
5.4394e-13
-1.40759e-14
5.44055e-13
-9.36935e-16
5.42709e-13
1.22854e-14
5.39951e-13
2.52834e-14
5.35868e-13
3.77813e-14
5.30573e-13
4.95516e-14
5.24194e-13
6.04175e-14
5.16865e-13
7.02492e-14
5.08723e-13
7.89584e-14
4.99901e-13
8.64929e-14
4.90531e-13
9.28327e-14
4.80737e-13
9.79842e-14
4.70635e-13
1.01978e-13
4.60334e-13
1.04861e-13
4.49934e-13
1.06697e-13
4.39525e-13
1.07561e-13
4.29188e-13
1.07534e-13
4.18996e-13
1.06704e-13
4.09009e-13
1.05162e-13
3.99284e-13
1.03e-13
3.89865e-13
1.00308e-13
3.8079e-13
9.71772e-14
3.72089e-13
9.36949e-14
3.63785e-13
8.99454e-14
3.55895e-13
8.60089e-14
3.4843e-13
8.19617e-14
3.41396e-13
7.78755e-14
3.34792e-13
7.3817e-14
3.28615e-13
6.98487e-14
3.22857e-13
6.60281e-14
3.17506e-13
6.24081e-14
3.12545e-13
5.90369e-14
3.07954e-13
5.59587e-14
3.03708e-13
5.32132e-14
2.99775e-13
5.08371e-14
2.96117e-13
4.8863e-14
2.92685e-13
4.73182e-14
2.89421e-13
4.62357e-14
4.56992e-14
2.68298e-13
4.95864e-15
2.72542e-13
1.32476e-14
2.78735e-13
1.94381e-14
2.86257e-13
2.32974e-14
2.94575e-13
2.47962e-14
3.03271e-13
2.40481e-14
3.1204e-13
2.12681e-14
3.20688e-13
1.67325e-14
3.2911e-13
1.07449e-14
3.37274e-13
3.6095e-15
3.45198e-13
-4.38561e-15
3.52933e-13
-1.29779e-14
3.60551e-13
-2.1934e-14
3.68127e-13
-3.10494e-14
3.7574e-13
-4.01456e-14
3.83459e-13
-4.90658e-14
3.91342e-13
-5.76707e-14
3.99437e-13
-6.58337e-14
4.07773e-13
-7.34378e-14
4.16366e-13
-8.0372e-14
4.25217e-13
-8.65298e-14
4.34309e-13
-9.18071e-14
4.4361e-13
-9.61024e-14
4.53075e-13
-9.93165e-14
4.62643e-13
-1.01354e-13
4.72238e-13
-1.02123e-13
4.81772e-13
-1.01541e-13
4.91142e-13
-9.95323e-14
5.00234e-13
-9.60355e-14
5.08919e-13
-9.10054e-14
5.17057e-13
-8.44195e-14
5.24496e-13
-7.62841e-14
5.31076e-13
-6.66431e-14
5.36633e-13
-5.55874e-14
5.41011e-13
-4.32629e-14
5.44066e-13
-2.98756e-14
5.45687e-13
-1.5696e-14
5.45808e-13
-1.05829e-15
5.44431e-13
1.36622e-14
5.4162e-13
2.80949e-14
5.37481e-13
4.19194e-14
5.32148e-13
5.48847e-14
5.25761e-13
6.68049e-14
5.18461e-13
7.75491e-14
5.10388e-13
8.70316e-14
5.01676e-13
9.52048e-14
4.92455e-13
1.02054e-13
4.82846e-13
1.07593e-13
4.72963e-13
1.1186e-13
4.62913e-13
1.14911e-13
4.5279e-13
1.1682e-13
4.42681e-13
1.1767e-13
4.32663e-13
1.17551e-13
4.22805e-13
1.16562e-13
4.13167e-13
1.14801e-13
4.03799e-13
1.12368e-13
3.94744e-13
1.09363e-13
3.86038e-13
1.05883e-13
3.77708e-13
1.02024e-13
3.69777e-13
9.7877e-14
3.62258e-13
9.35277e-14
3.55162e-13
8.90584e-14
3.48491e-13
8.45458e-14
3.42247e-13
8.00617e-14
3.36423e-13
7.56725e-14
3.31011e-13
7.14398e-14
3.25999e-13
6.74204e-14
3.21369e-13
6.36667e-14
3.17101e-13
6.02268e-14
3.13168e-13
5.71457e-14
3.0954e-13
5.44656e-14
3.06176e-13
5.22264e-14
3.03032e-13
5.0463e-14
3.00048e-13
4.92192e-14
4.85989e-14
2.68153e-13
3.47229e-15
2.72053e-13
9.34748e-15
2.77803e-13
1.36883e-14
2.84872e-13
1.62282e-14
2.92796e-13
1.68719e-14
3.01197e-13
1.5648e-14
3.09785e-13
1.26795e-14
3.18363e-13
8.1547e-15
3.26809e-13
2.29886e-15
3.35066e-13
-4.64775e-15
3.43127e-13
-1.24459e-14
3.51017e-13
-2.08678e-14
3.58785e-13
-2.97022e-14
3.66492e-13
-3.87563e-14
3.74201e-13
-4.78553e-14
3.81975e-13
-5.68399e-14
3.89869e-13
-6.55639e-14
3.97926e-13
-7.38908e-14
4.06179e-13
-8.16913e-14
4.14648e-13
-8.88411e-14
4.23338e-13
-9.52189e-14
4.32237e-13
-1.00706e-13
4.41321e-13
-1.05187e-13
4.50552e-13
-1.08547e-13
4.59876e-13
-1.10677e-13
4.69225e-13
-1.11473e-13
4.78522e-13
-1.10837e-13
4.87672e-13
-1.08682e-13
4.9657e-13
-1.04934e-13
5.05097e-13
-9.95324e-14
5.13119e-13
-9.24417e-14
5.20489e-13
-8.36534e-14
5.27044e-13
-7.31986e-14
5.32616e-13
-6.11596e-14
5.37035e-13
-4.76818e-14
5.40139e-13
-3.29796e-14
5.41792e-13
-1.73489e-14
5.41914e-13
-1.18064e-15
5.40511e-13
1.50653e-14
5.3767e-13
3.09365e-14
5.33527e-13
4.60618e-14
5.28237e-13
6.01747e-14
5.21951e-13
7.30914e-14
5.14812e-13
8.4688e-14
5.06957e-13
9.48865e-14
4.98516e-13
1.03646e-13
4.89612e-13
1.10958e-13
4.80363e-13
1.16843e-13
4.70875e-13
1.21347e-13
4.61249e-13
1.24537e-13
4.51576e-13
1.26494e-13
4.41936e-13
1.27309e-13
4.32403e-13
1.27085e-13
4.23041e-13
1.25924e-13
4.13905e-13
1.23936e-13
4.05043e-13
1.21229e-13
3.96497e-13
1.17909e-13
3.88298e-13
1.14083e-13
3.80471e-13
1.09851e-13
3.73037e-13
1.05311e-13
3.66008e-13
1.00557e-13
3.59392e-13
9.56742e-14
3.53192e-13
9.07461e-14
3.47406e-13
8.5848e-14
3.42027e-13
8.10509e-14
3.37047e-13
7.64197e-14
3.32453e-13
7.20152e-14
3.28226e-13
6.78934e-14
3.24346e-13
6.41066e-14
3.20788e-13
6.07043e-14
3.17519e-13
5.77343e-14
3.14502e-13
5.52429e-14
3.11693e-13
5.32724e-14
3.09036e-13
5.18761e-14
5.11768e-14
2.68015e-13
2.12364e-15
2.71577e-13
5.78546e-15
2.7687e-13
8.39584e-15
2.83437e-13
9.66076e-15
2.90875e-13
9.43432e-15
2.98843e-13
7.67942e-15
3.07076e-13
4.44651e-15
3.15379e-13
-1.48332e-16
3.23624e-13
-5.94579e-15
3.31738e-13
-1.2762e-14
3.39695e-13
-2.0403e-14
3.47502e-13
-2.86749e-14
3.5519e-13
-3.739e-14
3.62804e-13
-4.637e-14
3.70396e-13
-5.54472e-14
3.78019e-13
-6.44633e-14
3.85723e-13
-7.32682e-14
3.93551e-13
-8.17182e-14
4.01534e-13
-8.96743e-14
4.09693e-13
-9.70002e-14
4.18036e-13
-1.03562e-13
4.26558e-13
-1.09228e-13
4.35238e-13
-1.13867e-13