/*--------------------------------*- C++ -*----------------------------------*\
  =========                 |
  \\      /  F ield         | OpenFOAM: The Open Source CFD Toolbox
   \\    /   O peration     | Website:  https://openfoam.org
    \\  /    A nd           | Version:  7
     \\/     M anipulation  |
\*---------------------------------------------------------------------------*/
FoamFile
{
    version     2.0;
    format      ascii;
    class       volVectorField;
    location    "20";
    object      U;
}
// * * * * * * * * * * * * * * * * * * * * * * * * * * * * * * * * * * * * * //

dimensions      [0 1 -1 0 0 0 0];

internalField   nonuniform List<vector> 
5625
(
(0.000695089 0.00014716 0)
(0.00059318 0.000127822 0)
(0.000428863 7.49144e-05 0)
(0.000311006 4.21448e-05 0)
(0.000241861 2.43737e-05 0)
(0.000198499 1.47024e-05 0)
(0.000169281 9.32327e-06 0)
(0.000148895 6.2028e-06 0)
(0.000134327 4.27983e-06 0)
(0.000123756 3.015e-06 0)
(0.000116063 2.13224e-06 0)
(0.000110532 1.48481e-06 0)
(0.000106678 9.90834e-07 0)
(0.00010416 6.01958e-07 0)
(0.000102728 2.88374e-07 0)
(0.000102194 3.0634e-08 0)
(0.000102411 -1.84008e-07 0)
(0.000103262 -3.64511e-07 0)
(0.00010465 -5.16717e-07 0)
(0.000106493 -6.45027e-07 0)
(0.000108719 -7.51982e-07 0)
(0.00011126 -8.39753e-07 0)
(0.000114058 -9.0913e-07 0)
(0.000117052 -9.61167e-07 0)
(0.000120186 -9.95716e-07 0)
(0.000123404 -1.01336e-06 0)
(0.00012665 -1.01354e-06 0)
(0.000129868 -9.9683e-07 0)
(0.000133004 -9.62637e-07 0)
(0.000136001 -9.11911e-07 0)
(0.000138807 -8.44368e-07 0)
(0.00014137 -7.61608e-07 0)
(0.000143643 -6.63901e-07 0)
(0.000145583 -5.53662e-07 0)
(0.000147149 -4.31806e-07 0)
(0.000148312 -3.01538e-07 0)
(0.000149047 -1.64311e-07 0)
(0.000149337 -2.38784e-08 0)
(0.000149175 1.18079e-07 0)
(0.000148561 2.57666e-07 0)
(0.000147505 3.93397e-07 0)
(0.000146024 5.21688e-07 0)
(0.000144142 6.4162e-07 0)
(0.000141891 7.50258e-07 0)
(0.000139304 8.47461e-07 0)
(0.000136422 9.31099e-07 0)
(0.000133286 1.00182e-06 0)
(0.000129938 1.05829e-06 0)
(0.000126422 1.10181e-06 0)
(0.000122779 1.1317e-06 0)
(0.00011905 1.14973e-06 0)
(0.000115275 1.1557e-06 0)
(0.000111487 1.15162e-06 0)
(0.00010772 1.13763e-06 0)
(0.000104002 1.1158e-06 0)
(0.000100359 1.08645e-06 0)
(9.68118e-05 1.05161e-06 0)
(9.33781e-05 1.01174e-06 0)
(9.00718e-05 9.68718e-07 0)
(8.69025e-05 9.2311e-07 0)
(8.38765e-05 8.76707e-07 0)
(8.09959e-05 8.30193e-07 0)
(7.82589e-05 7.85352e-07 0)
(7.56595e-05 7.43137e-07 0)
(7.31871e-05 7.05576e-07 0)
(7.0826e-05 6.74277e-07 0)
(6.85543e-05 6.52203e-07 0)
(6.6342e-05 6.42848e-07 0)
(6.4148e-05 6.52622e-07 0)
(6.19129e-05 6.91637e-07 0)
(5.95577e-05 7.77293e-07 0)
(5.69861e-05 9.41968e-07 0)
(5.39329e-05 1.26456e-06 0)
(4.95358e-05 1.86714e-06 0)
(4.41001e-05 2.61658e-06 0)
(0.000985692 0.000289568 0)
(0.000967957 0.000304588 0)
(0.000841267 0.000216536 0)
(0.000708423 0.000145499 0)
(0.000602961 9.80222e-05 0)
(0.000522268 6.71665e-05 0)
(0.000460875 4.71054e-05 0)
(0.000414421 3.37652e-05 0)
(0.000379345 2.45673e-05 0)
(0.000352934 1.79731e-05 0)
(0.00033322 1.30711e-05 0)
(0.00031878 9.30996e-06 0)
(0.000308568 6.34579e-06 0)
(0.000301802 3.95755e-06 0)
(0.000297888 1.99834e-06 0)
(0.00029636 3.68652e-07 0)
(0.000296846 -1.00103e-06 0)
(0.000299045 -2.15885e-06 0)
(0.000302699 -3.13952e-06 0)
(0.000307591 -3.96648e-06 0)
(0.000313523 -4.65701e-06 0)
(0.000320317 -5.22155e-06 0)
(0.000327806 -5.66816e-06 0)
(0.000335831 -6.00023e-06 0)
(0.000344234 -6.22122e-06 0)
(0.000352864 -6.33107e-06 0)
(0.000361567 -6.33169e-06 0)
(0.000370192 -6.22225e-06 0)
(0.00037859 -6.00546e-06 0)
(0.000386613 -5.68183e-06 0)
(0.000394119 -5.25677e-06 0)
(0.000400971 -4.73376e-06 0)
(0.000407041 -4.12227e-06 0)
(0.000412213 -3.42966e-06 0)
(0.000416386 -2.66982e-06 0)
(0.000419475 -1.85392e-06 0)
(0.000421417 -9.99513e-07 0)
(0.000422166 -1.20271e-07 0)
(0.000421703 7.6447e-07 0)
(0.000420029 1.64075e-06 0)
(0.000417166 2.48993e-06 0)
(0.000413159 3.30016e-06 0)
(0.000408072 4.05577e-06 0)
(0.000401982 4.74884e-06 0)
(0.000394982 5.36809e-06 0)
(0.000387175 5.91028e-06 0)
(0.000378668 6.36888e-06 0)
(0.000369576 6.74515e-06 0)
(0.000360012 7.03683e-06 0)
(0.000350087 7.24883e-06 0)
(0.00033991 7.38222e-06 0)
(0.000329585 7.44439e-06 0)
(0.000319207 7.43876e-06 0)
(0.000308863 7.3741e-06 0)
(0.000298633 7.25522e-06 0)
(0.000288584 7.09144e-06 0)
(0.000278776 6.88829e-06 0)
(0.000269258 6.65507e-06 0)
(0.000260068 6.39766e-06 0)
(0.000251234 6.12515e-06 0)
(0.000242774 5.84372e-06 0)
(0.000234695 5.56241e-06 0)
(0.000226995 5.28808e-06 0)
(0.000219658 5.03039e-06 0)
(0.00021266 4.7979e-06 0)
(0.00020596 4.60257e-06 0)
(0.000199506 4.45712e-06 0)
(0.000193227 4.37993e-06 0)
(0.000187031 4.39489e-06 0)
(0.000180799 4.53829e-06 0)
(0.00017439 4.86048e-06 0)
(0.000167678 5.44031e-06 0)
(0.000160383 6.4242e-06 0)
(0.000151511 7.97035e-06 0)
(0.000142113 9.61263e-06 0)
(0.00102835 0.00025266 0)
(0.00105554 0.000355607 0)
(0.00100722 0.000316719 0)
(0.000923502 0.000251735 0)
(0.000835665 0.000192043 0)
(0.000755998 0.000144449 0)
(0.000688365 0.000108491 0)
(0.000633096 8.16702e-05 0)
(0.000588999 6.15129e-05 0)
(0.000554472 4.61174e-05 0)
(0.000527986 3.41337e-05 0)
(0.000508221 2.4625e-05 0)
(0.000494091 1.69444e-05 0)
(0.000484708 1.06414e-05 0)
(0.000479352 5.39973e-06 0)
(0.000477433 9.93833e-07 0)
(0.000478458 -2.73698e-06 0)
(0.000482014 -5.9094e-06 0)
(0.00048774 -8.60604e-06 0)
(0.000495323 -1.08872e-05 0)
(0.000504474 -1.27934e-05 0)
(0.000514928 -1.43542e-05 0)
(0.000526435 -1.55867e-05 0)
(0.000538753 -1.65038e-05 0)
(0.000551643 -1.71102e-05 0)
(0.000564873 -1.74112e-05 0)
(0.000578209 -1.74069e-05 0)
(0.00059142 -1.71018e-05 0)
(0.000604278 -1.64973e-05 0)
(0.000616556 -1.56027e-05 0)
(0.000628038 -1.44257e-05 0)
(0.000638513 -1.29848e-05 0)
(0.000647788 -1.12973e-05 0)
(0.000655686 -9.39292e-06 0)
(0.000662052 -7.3e-06 0)
(0.000666756 -5.05903e-06 0)
(0.000669701 -2.7072e-06 0)
(0.00067082 -2.92333e-07 0)
(0.000670078 2.14436e-06 0)
(0.000667479 4.55373e-06 0)
(0.000663055 6.89695e-06 0)
(0.000656874 9.13002e-06 0)
(0.000649031 1.12223e-05 0)
(0.000639643 1.314e-05 0)
(0.000628851 1.48643e-05 0)
(0.000616808 1.63738e-05 0)
(0.000603681 1.76623e-05 0)
(0.000589639 1.87208e-05 0)
(0.000574856 1.95542e-05 0)
(0.000559503 2.01638e-05 0)
(0.000543745 2.05632e-05 0)
(0.00052774 2.07613e-05 0)
(0.000511634 2.07771e-05 0)
(0.000495561 2.06246e-05 0)
(0.000479644 2.03259e-05 0)
(0.000463988 1.98976e-05 0)
(0.000448684 1.93628e-05 0)
(0.00043381 1.87393e-05 0)
(0.000419425 1.80505e-05 0)
(0.000405574 1.73146e-05 0)
(0.000392288 1.65546e-05 0)
(0.000379579 1.57896e-05 0)
(0.000367445 1.50432e-05 0)
(0.00035587 1.43365e-05 0)
(0.000344818 1.36957e-05 0)
(0.000334237 1.31469e-05 0)
(0.000324058 1.27231e-05 0)
(0.000314192 1.24614e-05 0)
(0.00030453 1.24099e-05 0)
(0.000294938 1.26267e-05 0)
(0.000285281 1.31829e-05 0)
(0.00027549 1.41576e-05 0)
(0.00026539 1.56406e-05 0)
(0.000253975 1.75995e-05 0)
(0.000242446 1.93015e-05 0)
(0.00102596 0.000195958 0)
(0.00106476 0.000343602 0)
(0.00106467 0.000358019 0)
(0.00102798 0.000319443 0)
(0.000972376 0.000266124 0)
(0.000911834 0.000214289 0)
(0.000854156 0.000169535 0)
(0.000803041 0.00013269 0)
(0.000759799 0.000102858 0)
(0.000724493 7.87497e-05 0)
(0.000696611 5.91578e-05 0)
(0.00067543 4.30923e-05 0)
(0.000660194 2.97826e-05 0)
(0.000650187 1.86448e-05 0)
(0.000644765 9.24004e-06 0)
(0.000643356 1.24179e-06 0)
(0.000645457 -5.59409e-06 0)
(0.00065062 -1.14468e-05 0)
(0.000658445 -1.64495e-05 0)
(0.000668563 -2.06964e-05 0)
(0.000680635 -2.42567e-05 0)
(0.00069434 -2.71748e-05 0)
(0.000709366 -2.94828e-05 0)
(0.000725411 -3.1197e-05 0)
(0.000742176 -3.233e-05 0)
(0.000759363 -3.28847e-05 0)
(0.000776674 -3.28674e-05 0)
(0.000793813 -3.22791e-05 0)
(0.000810486 -3.11306e-05 0)
(0.000826402 -2.9431e-05 0)
(0.00084128 -2.72044e-05 0)
(0.00085485 -2.44755e-05 0)
(0.000866861 -2.12879e-05 0)
(0.000877083 -1.76864e-05 0)
(0.000885316 -1.37357e-05 0)
(0.000891392 -9.49996e-06 0)
(0.000895183 -5.06122e-06 0)
(0.000896601 -4.96399e-07 0)
(0.000895604 4.1041e-06 0)
(0.000892192 8.66163e-06 0)
(0.00088641 1.30896e-05 0)
(0.000878344 1.73195e-05 0)
(0.000868114 2.12796e-05 0)
(0.000855875 2.49208e-05 0)
(0.000841805 2.81929e-05 0)
(0.000826105 3.10701e-05 0)
(0.000808987 3.35259e-05 0)
(0.000790672 3.55572e-05 0)
(0.000771382 3.71586e-05 0)
(0.000751339 3.83458e-05 0)
(0.000730755 3.91304e-05 0)
(0.000709834 3.95414e-05 0)
(0.000688767 3.9602e-05 0)
(0.000667726 3.93494e-05 0)
(0.00064687 3.88139e-05 0)
(0.000626338 3.80368e-05 0)
(0.000606247 3.70516e-05 0)
(0.0005867 3.59008e-05 0)
(0.000567775 3.46194e-05 0)
(0.000549533 3.32493e-05 0)
(0.000532015 3.18264e-05 0)
(0.000515242 3.03924e-05 0)
(0.000499216 2.89845e-05 0)
(0.00048392 2.76461e-05 0)
(0.000469318 2.64182e-05 0)
(0.000455354 2.53491e-05 0)
(0.000441955 2.4488e-05 0)
(0.00042903 2.38931e-05 0)
(0.000416473 2.36262e-05 0)
(0.000404164 2.3757e-05 0)
(0.000391995 2.43505e-05 0)
(0.000379957 2.54552e-05 0)
(0.000367941 2.70704e-05 0)
(0.000354837 2.90109e-05 0)
(0.000341822 3.04989e-05 0)
(0.00101829 0.000154269 0)
(0.00105517 0.000311356 0)
(0.00107795 0.000359923 0)
(0.00107351 0.000348715 0)
(0.00104775 0.000310574 0)
(0.00101063 0.000263967 0)
(0.000969744 0.000217997 0)
(0.000929954 0.000176419 0)
(0.000894048 0.000140286 0)
(0.000863394 0.000109443 0)
(0.000838475 8.32834e-05 0)
(0.000819281 6.10969e-05 0)
(0.000805536 4.22202e-05 0)
(0.000796845 2.60858e-05 0)
(0.000792766 1.22319e-05 0)
(0.000792852 2.90451e-07 0)
(0.000796671 -1.00231e-05 0)
(0.000803811 -1.89287e-05 0)
(0.00081388 -2.6589e-05 0)
(0.000826507 -3.31263e-05 0)
(0.000841331 -3.86247e-05 0)
(0.000858003 -4.31449e-05 0)
(0.000876178 -4.67222e-05 0)
(0.000895515 -4.93814e-05 0)
(0.00091567 -5.11312e-05 0)
(0.000936299 -5.19802e-05 0)
(0.000957055 -5.19279e-05 0)
(0.00097759 -5.09835e-05 0)
(0.000997557 -4.91531e-05 0)
(0.00101661 -4.64608e-05 0)
(0.00103442 -4.29328e-05 0)
(0.00105066 -3.86193e-05 0)
(0.00106503 -3.35761e-05 0)
(0.00107726 -2.78866e-05 0)
(0.0010871 -2.16387e-05 0)
(0.00109435 -1.49476e-05 0)
(0.00109887 -7.92763e-06 0)
(0.00110054 -7.15444e-07 0)
(0.00109931 6.5623e-06 0)
(0.00109518 1.37654e-05 0)
(0.00108821 2.07739e-05 0)
(0.0010785 2.74631e-05 0)
(0.00106619 3.37371e-05 0)
(0.00105148 3.95011e-05 0)
(0.00103457 4.4694e-05 0)
(0.0010157 4.92573e-05 0)
(0.000995131 5.31667e-05 0)
(0.000973125 5.63998e-05 0)
(0.000949948 5.8965e-05 0)
(0.000925862 6.08699e-05 0)
(0.000901122 6.21484e-05 0)
(0.000875969 6.28301e-05 0)
(0.00085063 6.29661e-05 0)
(0.000825313 6.26002e-05 0)
(0.000800206 6.1793e-05 0)
(0.000775473 6.05963e-05 0)
(0.000751259 5.90744e-05 0)
(0.000727683 5.72826e-05 0)
(0.000704843 5.52854e-05 0)
(0.000682813 5.3139e-05 0)
(0.000661644 5.09072e-05 0)
(0.000641367 4.86464e-05 0)
(0.000621989 4.642e-05 0)
(0.000603496 4.42863e-05 0)
(0.000585857 4.23107e-05 0)
(0.000569019 4.05558e-05 0)
(0.000552913 3.90916e-05 0)
(0.000537455 3.79867e-05 0)
(0.000522552 3.73144e-05 0)
(0.000508103 3.71401e-05 0)
(0.000494026 3.7515e-05 0)
(0.000480352 3.84471e-05 0)
(0.000466983 3.98718e-05 0)
(0.000452677 4.15357e-05 0)
(0.000438565 4.27453e-05 0)
(0.00101229 0.00012465 0)
(0.00104371 0.000275202 0)
(0.00107523 0.000341626 0)
(0.00109001 0.000351714 0)
(0.00108678 0.00032984 0)
(0.0010708 0.000292719 0)
(0.00104767 0.000250443 0)
(0.00102187 0.000208482 0)
(0.000996594 0.000169442 0)
(0.000973878 0.000134314 0)
(0.000954893 0.00010325 0)
(0.000940211 7.60081e-05 0)
(0.000930019 5.21967e-05 0)
(0.000924269 3.13968e-05 0)
(0.000922772 1.32178e-05 0)
(0.000925259 -2.67599e-06 0)
(0.000931422 -1.65636e-05 0)
(0.000940929 -2.86651e-05 0)
(0.000953441 -3.91533e-05 0)
(0.000968611 -4.81535e-05 0)
(0.000986093 -5.57587e-05 0)
(0.00100553 -6.20276e-05 0)
(0.00102658 -6.70004e-05 0)
(0.00104886 -7.06938e-05 0)
(0.00107202 -7.31194e-05 0)
(0.00109568 -7.42745e-05 0)
(0.00111945 -7.41634e-05 0)
(0.00114295 -7.2785e-05 0)
(0.00116578 -7.01565e-05 0)
(0.00118757 -6.62976e-05 0)
(0.00120793 -6.12565e-05 0)
(0.0012265 -5.50896e-05 0)
(0.00124293 -4.78893e-05 0)
(0.00125691 -3.97581e-05 0)
(0.00126816 -3.08367e-05 0)
(0.00127645 -2.12724e-05 0)
(0.00128159 -1.12461e-05 0)
(0.00128348 -9.34639e-07 0)
(0.00128204 9.4618e-06 0)
(0.00127728 1.97618e-05 0)
(0.00126926 2.97741e-05 0)
(0.00125811 3.93406e-05 0)
(0.00124398 4.83044e-05 0)
(0.00122711 5.65511e-05 0)
(0.00120773 6.39731e-05 0)
(0.00118612 7.05086e-05 0)
(0.00116257 7.61027e-05 0)
(0.00113739 8.07441e-05 0)
(0.00111087 8.44252e-05 0)
(0.00108331 8.71763e-05 0)
(0.00105501 8.90266e-05 0)
(0.00102625 9.00364e-05 0)
(0.000997265 9.02602e-05 0)
(0.000968306 8.9777e-05 0)
(0.000939581 8.86563e-05 0)
(0.000911279 8.69861e-05 0)
(0.000883563 8.48434e-05 0)
(0.000856571 8.23185e-05 0)
(0.000830413 7.94906e-05 0)
(0.000805177 7.64491e-05 0)
(0.000780923 7.32726e-05 0)
(0.00075769 7.00483e-05 0)
(0.000735493 6.68546e-05 0)
(0.000714325 6.3777e-05 0)
(0.000694159 6.08946e-05 0)
(0.00067495 5.82927e-05 0)
(0.000656637 5.60513e-05 0)
(0.000639147 5.42534e-05 0)
(0.000622401 5.29721e-05 0)
(0.000606314 5.22714e-05 0)
(0.000590819 5.21826e-05 0)
(0.000575964 5.26894e-05 0)
(0.000561635 5.36899e-05 0)
(0.000546462 5.49268e-05 0)
(0.000531539 5.58249e-05 0)
(0.00100846 0.000102773 0)
(0.00103459 0.00024064 0)
(0.0010681 0.00031409 0)
(0.00109322 0.000338346 0)
(0.00110529 0.000330241 0)
(0.00110601 0.000303326 0)
(0.00109869 0.000267091 0)
(0.00108674 0.000227577 0)
(0.00107303 0.000188307 0)
(0.00105972 0.000151145 0)
(0.00104829 0.00011694 0)
(0.00103969 8.5955e-05 0)
(0.00103445 5.81456e-05 0)
(0.00103282 3.33185e-05 0)
(0.00103485 1.12296e-05 0)
(0.00104046 -8.36926e-06 0)
(0.00104948 -2.57e-05 0)
(0.00106169 -4.09524e-05 0)
(0.00107682 -5.42744e-05 0)
(0.00109458 -6.57809e-05 0)
(0.00111466 -7.55487e-05 0)
(0.00113671 -8.36313e-05 0)
(0.0011604 -9.00527e-05 0)
(0.00118535 -9.48259e-05 0)
(0.0012112 -9.79446e-05 0)
(0.00123753 -9.94051e-05 0)
(0.00126396 -9.91946e-05 0)
(0.00129006 -9.73168e-05 0)
(0.00131542 -9.37766e-05 0)
(0.00133961 -8.86093e-05 0)
(0.00136221 -8.18605e-05 0)
(0.00138283 -7.36179e-05 0)
(0.00140108 -6.3985e-05 0)
(0.00141661 -5.31146e-05 0)
(0.00142911 -4.11748e-05 0)
(0.00143832 -2.83816e-05 0)
(0.00144402 -1.4957e-05 0)
(0.0014461 -1.16004e-06 0)
(0.00144447 1.27617e-05 0)
(0.00143915 2.65417e-05 0)
(0.00143021 3.99457e-05 0)
(0.00141779 5.27383e-05 0)
(0.00140207 6.47332e-05 0)
(0.00138331 7.57544e-05 0)
(0.00136179 8.56832e-05 0)
(0.0013378 9.44141e-05 0)
(0.00131168 0.0001019 0)
(0.00128377 0.000108102 0)
(0.0012544 0.000113035 0)
(0.00122389 0.000116718 0)
(0.00119258 0.000119212 0)
(0.00116076 0.000120576 0)
(0.00112872 0.000120903 0)
(0.0010967 0.00012028 0)
(0.00106496 0.000118815 0)
(0.00103368 0.000116609 0)
(0.00100305 0.000113778 0)
(0.000973225 0.000110428 0)
(0.000944323 0.000106675 0)
(0.000916442 0.000102624 0)
(0.000889652 9.83891e-05 0)
(0.000863999 9.40713e-05 0)
(0.000839505 8.97804e-05 0)
(0.00081617 8.56154e-05 0)
(0.000793976 8.16813e-05 0)
(0.000772882 7.80736e-05 0)
(0.00075284 7.48907e-05 0)
(0.000733786 7.2219e-05 0)
(0.000715652 7.0139e-05 0)
(0.000698361 6.87063e-05 0)
(0.000681856 6.79465e-05 0)
(0.000666179 6.7827e-05 0)
(0.000651192 6.82417e-05 0)
(0.00063542 6.89558e-05 0)
(0.000619932 6.95251e-05 0)
(0.00100614 8.59466e-05 0)
(0.00102806 0.000209226 0)
(0.00106073 0.000282983 0)
(0.00109084 0.000315311 0)
(0.00111262 0.000317387 0)
(0.00112555 0.000299528 0)
(0.00113109 0.000269874 0)
(0.00113139 0.000234253 0)
(0.00112869 0.000196527 0)
(0.00112492 0.000159084 0)
(0.00112159 0.00012329 0)
(0.00111978 8.98515e-05 0)
(0.00112024 5.90655e-05 0)
(0.00112342 3.09945e-05 0)
(0.00112957 5.57455e-06 0)
(0.00113878 -1.73116e-05 0)
(0.001151 -3.77987e-05 0)
(0.00116613 -5.6009e-05 0)
(0.00118399 -7.20482e-05 0)
(0.00120435 -8.59912e-05 0)
(0.00122694 -9.7892e-05 0)
(0.00125146 -0.000107774 0)
(0.00127759 -0.000115646 0)
(0.00130496 -0.000121494 0)
(0.0013332 -0.000125302 0)
(0.00136192 -0.000127041 0)
(0.00139069 -0.000126695 0)
(0.00141909 -0.000124246 0)
(0.00144666 -0.000119706 0)
(0.00147297 -0.000113097 0)
(0.00149757 -0.000104486 0)
(0.00152001 -9.39629e-05 0)
(0.00153988 -8.16729e-05 0)
(0.0015568 -6.77875e-05 0)
(0.00157043 -5.25407e-05 0)
(0.00158046 -3.61856e-05 0)
(0.00158668 -1.90306e-05 0)
(0.00158893 -1.38532e-06 0)
(0.00158714 1.64059e-05 0)
(0.00158133 3.40241e-05 0)
(0.00157157 5.11415e-05 0)
(0.00155802 6.74823e-05 0)
(0.00154091 8.27814e-05 0)
(0.0015205 9.68424e-05 0)
(0.00149711 0.000109488 0)
(0.00147108 0.000120615 0)
(0.00144276 0.000130136 0)
(0.00141253 0.000138034 0)
(0.00138075 0.000144302 0)
(0.00134778 0.000148993 0)
(0.00131395 0.00015216 0)
(0.00127961 0.000153904 0)
(0.00124504 0.00015432 0)
(0.00121053 0.00015354 0)
(0.00117632 0.000151682 0)
(0.00114263 0.000148891 0)
(0.00110965 0.000145297 0)
(0.00107755 0.000141048 0)
(0.00104646 0.000136274 0)
(0.00101648 0.000131121 0)
(0.000987681 0.000125715 0)
(0.000960128 0.000120195 0)
(0.000933845 0.000114682 0)
(0.000908838 0.000109306 0)
(0.000885094 0.000104182 0)
(0.000862584 9.94277e-05 0)
(0.000841262 9.51478e-05 0)
(0.000821077 9.14428e-05 0)
(0.000801966 8.83917e-05 0)
(0.000783856 8.60553e-05 0)
(0.000766687 8.44533e-05 0)
(0.000750493 8.35585e-05 0)
(0.000735107 8.32715e-05 0)
(0.000718977 8.34043e-05 0)
(0.00070315 8.36322e-05 0)
(0.00100471 7.24278e-05 0)
(0.00102347 0.000181006 0)
(0.00105431 0.000251127 0)
(0.00108639 0.000286946 0)
(0.001114 0.000295715 0)
(0.00113541 0.000284994 0)
(0.00115077 0.00026138 0)
(0.00116117 0.000230066 0)
(0.00116814 0.000194837 0)
(0.00117321 0.000158288 0)
(0.00117771 0.000122104 0)
(0.00118273 8.73148e-05 0)
(0.00118907 5.4509e-05 0)
(0.00119731 2.39867e-05 0)
(0.00120783 -4.12497e-06 0)
(0.00122084 -2.98008e-05 0)
(0.00123642 -5.30612e-05 0)
(0.00125455 -7.39476e-05 0)
(0.00127515 -9.24951e-05 0)
(0.00129805 -0.000108732 0)
(0.00132303 -0.000122662 0)
(0.00134985 -0.000134278 0)
(0.00137819 -0.000143551 0)
(0.00140773 -0.000150445 0)
(0.0014381 -0.000154908 0)
(0.00146892 -0.000156898 0)
(0.00149975 -0.000156367 0)
(0.00153016 -0.000153294 0)
(0.00155969 -0.000147667 0)
(0.00158786 -0.000139518 0)
(0.00161422 -0.000128902 0)
(0.00163829 -0.000115939 0)
(0.00165962 -0.000100782 0)
(0.0016778 -8.36581e-05 0)
(0.00169244 -6.48297e-05 0)
(0.00170323 -4.46342e-05 0)
(0.00170992 -2.3429e-05 0)
(0.00171234 -1.62852e-06 0)
(0.00171042 2.03633e-05 0)
(0.00170417 4.2118e-05 0)
(0.00169368 6.32547e-05 0)
(0.00167914 8.34003e-05 0)
(0.0016608 0.000102258 0)
(0.00163896 0.000119555 0)
(0.00161397 0.000135109 0)
(0.00158619 0.000148764 0)
(0.00155602 0.00016045 0)
(0.00152386 0.000170117 0)
(0.00149009 0.000177793 0)
(0.00145509 0.000183515 0)
(0.00141923 0.000187382 0)
(0.00138286 0.000189491 0)
(0.00134629 0.000189987 0)
(0.0013098 0.000189005 0)
(0.00127367 0.000186716 0)
(0.00123811 0.000183273 0)
(0.00120333 0.000178856 0)
(0.0011695 0.000173624 0)
(0.00113675 0.000167753 0)
(0.00110519 0.000161402 0)
(0.00107491 0.000154736 0)
(0.00104596 0.000147907 0)
(0.00101838 0.000141071 0)
(0.000992178 0.000134366 0)
(0.000967347 0.000127936 0)
(0.000943863 0.000121905 0)
(0.000921688 0.000116398 0)
(0.000900773 0.000111517 0)
(0.00088106 0.000107356 0)
(0.000862476 0.000103972 0)
(0.000844954 0.000101399 0)
(0.000828513 9.96166e-05 0)
(0.000812962 9.8552e-05 0)
(0.000796704 9.80625e-05 0)
(0.000780763 9.7944e-05 0)
(0.00100381 6.11179e-05 0)
(0.0010202 0.00015557 0)
(0.00104898 0.000219847 0)
(0.00108141 0.000255937 0)
(0.00111224 0.000268466 0)
(0.00113926 0.000262835 0)
(0.00116176 0.000244198 0)
(0.00118007 0.000216946 0)
(0.00119505 0.00018454 0)
(0.00120778 0.000149552 0)
(0.00121936 0.000113797 0)
(0.00123074 7.85088e-05 0)
(0.00124271 4.44885e-05 0)
(0.00125588 1.22369e-05 0)
(0.00127071 -1.79492e-05 0)
(0.00128748 -4.58978e-05 0)
(0.00130636 -7.15155e-05 0)
(0.00132743 -9.47438e-05 0)
(0.00135065 -0.000115545 0)
(0.00137594 -0.000133876 0)
(0.00140314 -0.000149693 0)
(0.00143203 -0.000162934 0)
(0.00146235 -0.000173535 0)
(0.0014938 -0.000181412 0)
(0.00152602 -0.000186492 0)
(0.00155864 -0.000188688 0)
(0.00159125 -0.000187939 0)
(0.00162339 -0.000184186 0)
(0.00165461 -0.000177417 0)
(0.00168442 -0.000167636 0)
(0.00171233 -0.000154917 0)
(0.00173784 -0.000139368 0)
(0.00176048 -0.000121184 0)
(0.00177979 -0.000100608 0)
(0.00179537 -7.79764e-05 0)
(0.00180686 -5.36677e-05 0)
(0.00181399 -2.81452e-05 0)
(0.00181658 -1.88585e-06 0)
(0.00181455 2.45827e-05 0)
(0.0018079 5.07663e-05 0)
(0.00179677 7.61662e-05 0)
(0.00178137 0.000100363 0)
(0.00176196 0.000122964 0)
(0.00173889 0.00014368 0)
(0.00171253 0.000162262 0)
(0.0016833 0.000178564 0)
(0.00165161 0.000192474 0)
(0.00161788 0.000203975 0)
(0.00158252 0.000213072 0)
(0.00154594 0.000219847 0)
(0.00150851 0.000224389 0)
(0.0014706 0.000226851 0)
(0.00143252 0.000227378 0)
(0.00139458 0.00022616 0)
(0.00135705 0.000223374 0)
(0.00132015 0.000219229 0)
(0.0012841 0.000213912 0)
(0.00124906 0.000207634 0)
(0.00121517 0.000200583 0)
(0.00118255 0.00019296 0)
(0.00115128 0.000184944 0)
(0.00112143 0.000176724 0)
(0.00109303 0.000168465 0)
(0.00106609 0.00016034 0)
(0.00104062 0.000152497 0)
(0.00101658 0.000145087 0)
(0.000993952 0.000138238 0)
(0.000972684 0.000132072 0)
(0.000952716 0.000126684 0)
(0.000933975 0.000122148 0)
(0.000916384 0.000118505 0)
(0.000899948 0.00011576 0)
(0.000884454 0.000113863 0)
(0.000868294 0.00011273 0)
(0.000852458 0.000112259 0)
(0.00100321 5.13494e-05 0)
(0.00101778 0.000132466 0)
(0.00104458 0.000189727 0)
(0.00107646 0.000223914 0)
(0.00110882 0.000237913 0)
(0.0011393 0.00023551 0)
(0.00116676 0.000220623 0)
(0.00119095 0.000196835 0)
(0.00121222 0.000167164 0)
(0.00123126 0.000134005 0)
(0.00124887 9.91689e-05 0)
(0.00126585 6.39786e-05 0)
(0.00128288 2.93715e-05 0)
(0.00130057 -4.0065e-06 0)
(0.00131938 -3.57133e-05 0)
(0.00133965 -6.54514e-05 0)
(0.0013616 -9.30105e-05 0)
(0.00138538 -0.00011824 0)
(0.001411 -0.000141013 0)
(0.00143844 -0.000161221 0)
(0.00146759 -0.00017875 0)
(0.00149828 -0.00019349 0)
(0.00153028 -0.000205318 0)
(0.00156333 -0.000214116 0)
(0.00159709 -0.000219756 0)
(0.00163121 -0.000222127 0)
(0.00166529 -0.000221119 0)
(0.00169888 -0.000216662 0)
(0.00173152 -0.000208699 0)
(0.00176272 -0.000197239 0)
(0.00179196 -0.000182327 0)
(0.00181873 -0.000164097 0)
(0.00184253 -0.000142739 0)
(0.00186287 -0.000118552 0)
(0.0018793 -9.19005e-05 0)
(0.00189144 -6.32592e-05 0)
(0.00189899 -3.31499e-05 0)
(0.00190174 -2.18079e-06 0)
(0.00189961 2.90439e-05 0)
(0.00189262 5.98902e-05 0)
(0.00188093 8.97944e-05 0)
(0.00186476 0.000118218 0)
(0.00184444 0.000144739 0)
(0.00182034 0.000168982 0)
(0.00179287 0.0001907 0)
(0.00176247 0.000209693 0)
(0.00172959 0.000225879 0)
(0.00169465 0.000239209 0)
(0.00165812 0.000249736 0)
(0.00162038 0.000257525 0)
(0.00158185 0.000262725 0)
(0.00154288 0.000265482 0)
(0.0015038 0.000266002 0)
(0.00146492 0.000264478 0)
(0.0014265 0.000261148 0)
(0.00138879 0.000256224 0)
(0.00135198 0.000249953 0)
(0.00131625 0.000242551 0)
(0.00128174 0.000234259 0)
(0.00124856 0.000225285 0)
(0.00121681 0.000215854 0)
(0.00118653 0.000206162 0)
(0.00115776 0.000196411 0)
(0.00113054 0.00018678 0)
(0.00110484 0.000177447 0)
(0.00108066 0.000168569 0)
(0.00105795 0.000160296 0)
(0.00103668 0.000152755 0)
(0.00101679 0.000146059 0)
(0.000998185 0.000140291 0)
(0.000980793 0.000135515 0)
(0.0009646 0.000131753 0)
(0.00094938 0.000128996 0)
(0.000933538 0.000127203 0)
(0.000918025 0.000126382 0)
(0.00100278 4.27152e-05 0)
(0.00101591 0.000111322 0)
(0.00104086 0.000161014 0)
(0.00107171 0.000191877 0)
(0.00110447 0.000205643 0)
(0.00113685 0.000204909 0)
(0.00116751 0.000192586 0)
(0.00119583 0.000171521 0)
(0.00122179 0.000144254 0)
(0.00124574 0.000112921 0)
(0.00126822 7.92332e-05 0)
(0.00128983 4.4517e-05 0)
(0.00131116 9.77271e-06 0)
(0.00133274 -2.42557e-05 0)
(0.00135502 -5.70225e-05 0)
(0.00137835 -8.81199e-05 0)
(0.00140299 -0.000117242 0)
(0.0014291 -0.00014414 0)
(0.00145678 -0.000168611 0)
(0.00148603 -0.000190466 0)
(0.00151679 -0.000209531 0)
(0.00154892 -0.000225626 0)
(0.00158226 -0.000238584 0)
(0.00161655 -0.000248223 0)
(0.0016515 -0.00025438 0)
(0.00168677 -0.000256886 0)
(0.00172198 -0.000255608 0)
(0.00175669 -0.00025042 0)
(0.00179045 -0.000241256 0)
(0.00182276 -0.000228079 0)
(0.0018531 -0.00021094 0)
(0.00188094 -0.000189947 0)
(0.00190574 -0.000165326 0)
(0.00192698 -0.00013738 0)
(0.00194418 -0.00010655 0)
(0.00195691 -7.33553e-05 0)
(0.00196485 -3.84441e-05 0)
(0.00196776 -2.50506e-06 0)
(0.00196555 3.36989e-05 0)
(0.00195827 6.94469e-05 0)
(0.00194608 0.000104028 0)
(0.00192927 0.000136852 0)
(0.0019082 0.000167388 0)
(0.00188328 0.000195255 0)
(0.00185495 0.000220136 0)
(0.00182368 0.000241856 0)
(0.00178995 0.000260292 0)
(0.00175421 0.000275446 0)
(0.00171691 0.000287344 0)
(0.00167848 0.000296116 0)
(0.00163931 0.000301899 0)
(0.00159977 0.000304905 0)
(0.0015602 0.000305338 0)
(0.00152089 0.000303459 0)
(0.00148211 0.000299504 0)
(0.0014441 0.000293751 0)
(0.00140706 0.000286449 0)
(0.00137116 0.000277874 0)
(0.00133653 0.000268269 0)
(0.00130329 0.000257895 0)
(0.00127152 0.000246981 0)
(0.00124128 0.000235765 0)
(0.00121261 0.000224455 0)
(0.00118552 0.000213265 0)
(0.00116001 0.000202376 0)
(0.00113607 0.000191974 0)
(0.00111365 0.000182212 0)
(0.00109271 0.000173239 0)
(0.0010732 0.000165176 0)
(0.00105502 0.00015813 0)
(0.00103808 0.000152177 0)
(0.00102236 0.000147374 0)
(0.00100762 0.000143739 0)
(0.000992315 0.000141287 0)
(0.00097734 0.000140115 0)
(0.00100245 3.49629e-05 0)
(0.0010144 9.18652e-05 0)
(0.00103763 0.00013381 0)
(0.00106716 0.000160462 0)
(0.00109955 0.000172774 0)
(0.00113268 0.000172473 0)
(0.00116514 0.000161673 0)
(0.00119611 0.000142577 0)
(0.00122532 0.000117269 0)
(0.00125285 8.75907e-05 0)
(0.00127901 5.50965e-05 0)
(0.00130422 2.10534e-05 0)
(0.00132895 -1.35282e-05 0)
(0.00135366 -4.78581e-05 0)
(0.00137875 -8.13157e-05 0)
(0.00140457 -0.000113416 0)
(0.00143137 -0.000143763 0)
(0.00145935 -0.000172033 0)
(0.00148863 -0.00019794 0)
(0.00151925 -0.000221227 0)
(0.00155119 -0.000241646 0)
(0.00158436 -0.000258964 0)
(0.0016186 -0.000272942 0)
(0.00165372 -0.000283357 0)
(0.00168944 -0.000289978 0)
(0.00172546 -0.000292607 0)
(0.00176141 -0.000291043 0)
(0.00179687 -0.000285141 0)
(0.0018314 -0.000274774 0)
(0.00186451 -0.000259896 0)
(0.00189567 -0.000240511 0)
(0.00192434 -0.00021674 0)
(0.00194995 -0.000188784 0)
(0.00197195 -0.000156997 0)
(0.00198982 -0.000121837 0)
(0.00200308 -8.39298e-05 0)
(0.00201137 -4.39931e-05 0)
(0.00201443 -2.8806e-06 0)
(0.00201215 3.85378e-05 0)
(0.00200461 7.93595e-05 0)
(0.00199202 0.000118791 0)
(0.00197469 0.000156103 0)
(0.00195304 0.000190742 0)
(0.00192753 0.000222238 0)
(0.00189863 0.000250298 0)
(0.00186683 0.000274695 0)
(0.00183264 0.000295356 0)
(0.0017965 0.000312248 0)
(0.0017589 0.000325469 0)
(0.00172025 0.000335128 0)
(0.00168094 0.000341436 0)
(0.00164135 0.000344597 0)
(0.0016018 0.000344888 0)
(0.0015626 0.000342564 0)
(0.00152399 0.000337934 0)
(0.00148621 0.000331275 0)
(0.00144946 0.000322899 0)
(0.00141389 0.000313083 0)
(0.00137965 0.000302127 0)
(0.00134684 0.000290295 0)
(0.00131553 0.000277863 0)
(0.00128579 0.000265073 0)
(0.00125764 0.000252172 0)
(0.00123111 0.000239376 0)
(0.00120619 0.0002269 0)
(0.00118285 0.00021493 0)
(0.00116107 0.000203648 0)
(0.00114079 0.000193207 0)
(0.00112195 0.000183752 0)
(0.00110445 0.0001754 0)
(0.00108821 0.000168257 0)
(0.00107319 0.000162402 0)
(0.00105914 0.000157892 0)
(0.00104459 0.000154784 0)
(0.00103036 0.000153269 0)
(0.0010022 2.79346e-05 0)
(0.00101312 7.3909e-05 0)
(0.00103471 0.000108165 0)
(0.00106274 0.000130096 0)
(0.00109421 0.000140116 0)
(0.00112723 0.000139311 0)
(0.00116039 0.000129169 0)
(0.00119278 0.000111355 0)
(0.00122397 8.75328e-05 0)
(0.00125384 5.92506e-05 0)
(0.00128253 2.78761e-05 0)
(0.00131029 -5.41977e-06 0)
(0.0013375 -3.96629e-05 0)
(0.00136449 -7.40486e-05 0)
(0.00139165 -0.00010792 0)
(0.00141927 -0.00014073 0)
(0.00144762 -0.000172024 0)
(0.00147689 -0.000201401 0)
(0.00150723 -0.000228513 0)
(0.00153871 -0.000253026 0)
(0.00157132 -0.000274638 0)
(0.00160502 -0.00029304 0)
(0.00163969 -0.000307946 0)
(0.00167515 -0.000319062 0)
(0.00171116 -0.000326121 0)
(0.00174745 -0.00032885 0)
(0.00178367 -0.000327022 0)
(0.00181944 -0.000320422 0)
(0.00185433 -0.000308903 0)
(0.00188785 -0.000292354 0)
(0.00191949 -0.000270773 0)
(0.00194869 -0.000244228 0)
(0.00197487 -0.000212943 0)
(0.00199745 -0.000177252 0)
(0.00201585 -0.000137688 0)
(0.00202957 -9.49122e-05 0)
(0.00203817 -4.97912e-05 0)
(0.00204136 -3.28773e-06 0)
(0.00203903 4.35156e-05 0)
(0.00203127 8.95889e-05 0)
(0.00201835 0.000133955 0)
(0.00200065 0.000175832 0)
(0.00197864 0.000214557 0)
(0.00195281 0.000249677 0)
(0.00192367 0.000280833 0)
(0.00189174 0.000307853 0)
(0.00185751 0.000330623 0)
(0.00182147 0.000349184 0)
(0.00178406 0.000363604 0)
(0.00174571 0.000374077 0)
(0.0017068 0.000380796 0)
(0.00166771 0.000384046 0)
(0.00162874 0.000384094 0)
(0.00159018 0.000381274 0)
(0.00155229 0.000375887 0)
(0.00151529 0.000368281 0)
(0.00147935 0.000358766 0)
(0.00144464 0.000347682 0)
(0.00141129 0.000335326 0)
(0.00137938 0.000322017 0)
(0.00134901 0.00030803 0)
(0.00132021 0.000293652 0)
(0.00129302 0.000279132 0)
(0.00126745 0.000264721 0)
(0.00124349 0.000250636 0)
(0.00122113 0.000237093 0)
(0.00120031 0.000224275 0)
(0.00118099 0.000212362 0)
(0.0011631 0.000201507 0)
(0.00114656 0.000191853 0)
(0.00113125 0.000183522 0)
(0.00111713 0.000176628 0)
(0.00110398 0.000171253 0)
(0.00109038 0.000167505 0)
(0.0010771 0.000165654 0)
(0.00100198 2.15309e-05 0)
(0.00101197 5.7333e-05 0)
(0.001032 8.41179e-05 0)
(0.00105837 0.000101088 0)
(0.00108853 0.000108276 0)
(0.00112076 0.000106288 0)
(0.00115374 9.61247e-05 0)
(0.00118653 7.90035e-05 0)
(0.0012186 5.62219e-05 0)
(0.0012497 2.90471e-05 0)
(0.00127983 -1.34466e-06 0)
(0.00130914 -3.39055e-05 0)
(0.00133785 -6.77199e-05 0)
(0.00136627 -0.000102004 0)
(0.00139468 -0.000136083 0)