/*--------------------------------*- C++ -*----------------------------------*\
  =========                 |
  \\      /  F ield         | OpenFOAM: The Open Source CFD Toolbox
   \\    /   O peration     | Website:  https://openfoam.org
    \\  /    A nd           | Version:  7
     \\/     M anipulation  |
\*---------------------------------------------------------------------------*/
FoamFile
{
    version     2.0;
    format      ascii;
    class       volVectorField;
    location    "0";
    object      U;
}
// * * * * * * * * * * * * * * * * * * * * * * * * * * * * * * * * * * * * * //

dimensions      [0 1 -1 0 0 0 0];

internalField   nonuniform List<vector> 
134400
(
(0.000141883 -1.50902e-07 0)
(0.000141883 -1.50902e-07 0)
(0.000142653 -1.08738e-07 0)
(0.000142653 -1.08738e-07 0)
(0.000142842 -5.66448e-08 0)
(0.000142842 -5.66448e-08 0)
(0.000142897 -3.25943e-08 0)
(0.000142897 -3.25943e-08 0)
(0.000142947 -1.91125e-08 0)
(0.000142947 -1.91125e-08 0)
(0.000142981 -1.07601e-08 0)
(0.000142981 -1.07601e-08 0)
(0.000143001 -5.92376e-09 0)
(0.000143001 -5.92376e-09 0)
(0.000143012 -3.1032e-09 0)
(0.000143012 -3.1032e-09 0)
(0.000143018 -1.34383e-09 0)
(0.000143018 -1.34383e-09 0)
(0.00014302 -1.82646e-10 0)
(0.00014302 -1.82646e-10 0)
(0.000143019 6.13664e-10 0)
(0.000143019 6.13664e-10 0)
(0.000143017 1.17492e-09 0)
(0.000143017 1.17492e-09 0)
(0.000143014 1.57545e-09 0)
(0.000143014 1.57545e-09 0)
(0.000143009 1.85855e-09 0)
(0.000143009 1.85855e-09 0)
(0.000143004 2.04994e-09 0)
(0.000143004 2.04994e-09 0)
(0.000142999 2.16483e-09 0)
(0.000142999 2.16483e-09 0)
(0.000142994 2.21165e-09 0)
(0.000142994 2.21165e-09 0)
(0.000142989 2.19413e-09 0)
(0.000142989 2.19413e-09 0)
(0.000142984 2.11261e-09 0)
(0.000142984 2.11261e-09 0)
(0.00014298 1.96469e-09 0)
(0.00014298 1.96469e-09 0)
(0.000142977 1.74571e-09 0)
(0.000142977 1.74571e-09 0)
(0.000142976 1.44902e-09 0)
(0.000142976 1.44902e-09 0)
(0.000142975 1.06608e-09 0)
(0.000142975 1.06608e-09 0)
(0.000142977 5.86501e-10 0)
(0.000142977 5.86501e-10 0)
(0.000142981 -1.9545e-12 0)
(0.000142981 -1.9545e-12 0)
(0.000142988 -7.13439e-10 0)
(0.000142988 -7.13439e-10 0)
(0.000142998 -1.56412e-09 0)
(0.000142998 -1.56412e-09 0)
(0.000143012 -2.57233e-09 0)
(0.000143012 -2.57233e-09 0)
(0.00014303 -3.7587e-09 0)
(0.00014303 -3.7587e-09 0)
(0.000143054 -5.14635e-09 0)
(0.000143054 -5.14635e-09 0)
(0.000143083 -6.76111e-09 0)
(0.000143083 -6.76111e-09 0)
(0.000143119 -8.63177e-09 0)
(0.000143119 -8.63177e-09 0)
(0.000143163 -1.07903e-08 0)
(0.000143163 -1.07903e-08 0)
(0.000143216 -1.3272e-08 0)
(0.000143216 -1.3272e-08 0)
(0.00014328 -1.61163e-08 0)
(0.00014328 -1.61163e-08 0)
(0.000143355 -1.93662e-08 0)
(0.000143355 -1.93662e-08 0)
(0.000143443 -2.30697e-08 0)
(0.000143443 -2.30697e-08 0)
(0.000143546 -2.72791e-08 0)
(0.000143546 -2.72791e-08 0)
(0.000143666 -3.20521e-08 0)
(0.000143666 -3.20521e-08 0)
(0.000143805 -3.74521e-08 0)
(0.000143805 -3.74521e-08 0)
(0.000143965 -4.35483e-08 0)
(0.000143965 -4.35483e-08 0)
(0.000144149 -5.04164e-08 0)
(0.000144149 -5.04164e-08 0)
(0.00014436 -5.81391e-08 0)
(0.00014436 -5.81391e-08 0)
(0.000144602 -6.68063e-08 0)
(0.000144602 -6.68063e-08 0)
(0.000144877 -7.65158e-08 0)
(0.000144877 -7.65158e-08 0)
(0.000145189 -8.73739e-08 0)
(0.000145189 -8.73739e-08 0)
(0.000145543 -9.94954e-08 0)
(0.000145543 -9.94954e-08 0)
(0.000145943 -1.13004e-07 0)
(0.000145943 -1.13004e-07 0)
(0.000146395 -1.28035e-07 0)
(0.000146395 -1.28035e-07 0)
(0.000146904 -1.4473e-07 0)
(0.000146904 -1.4473e-07 0)
(0.000147476 -1.63244e-07 0)
(0.000147476 -1.63244e-07 0)
(0.000148118 -1.83742e-07 0)
(0.000148118 -1.83742e-07 0)
(0.000148836 -2.06398e-07 0)
(0.000148836 -2.06398e-07 0)
(0.000149639 -2.314e-07 0)
(0.000149639 -2.314e-07 0)
(0.000150535 -2.58943e-07 0)
(0.000150535 -2.58943e-07 0)
(0.000151533 -2.89234e-07 0)
(0.000151533 -2.89234e-07 0)
(0.000152642 -3.2249e-07 0)
(0.000152642 -3.2249e-07 0)
(0.000153874 -3.58936e-07 0)
(0.000153874 -3.58936e-07 0)
(0.000155239 -3.98806e-07 0)
(0.000155239 -3.98806e-07 0)
(0.000156749 -4.42338e-07 0)
(0.000156749 -4.42338e-07 0)
(0.000158418 -4.89776e-07 0)
(0.000158418 -4.89776e-07 0)
(0.000160258 -5.41364e-07 0)
(0.000160258 -5.41364e-07 0)
(0.000162284 -5.97345e-07 0)
(0.000162284 -5.97345e-07 0)
(0.00016451 -6.57957e-07 0)
(0.00016451 -6.57957e-07 0)
(0.000166954 -7.23426e-07 0)
(0.000166954 -7.23426e-07 0)
(0.00016963 -7.93963e-07 0)
(0.00016963 -7.93963e-07 0)
(0.000172555 -8.69758e-07 0)
(0.000172555 -8.69758e-07 0)
(0.000175748 -9.50967e-07 0)
(0.000175748 -9.50967e-07 0)
(0.000179226 -1.03771e-06 0)
(0.000179226 -1.03771e-06 0)
(0.000183007 -1.13006e-06 0)
(0.000183007 -1.13006e-06 0)
(0.000187109 -1.22802e-06 0)
(0.000187109 -1.22802e-06 0)
(0.000191549 -1.33154e-06 0)
(0.000191549 -1.33154e-06 0)
(0.000196346 -1.44045e-06 0)
(0.000196346 -1.44045e-06 0)
(0.000201515 -1.55451e-06 0)
(0.000201515 -1.55451e-06 0)
(0.000207071 -1.67336e-06 0)
(0.000207071 -1.67336e-06 0)
(0.00021303 -1.79649e-06 0)
(0.00021303 -1.79649e-06 0)
(0.000219401 -1.92324e-06 0)
(0.000219401 -1.92324e-06 0)
(0.000226195 -2.05282e-06 0)
(0.000226195 -2.05282e-06 0)
(0.000233418 -2.18421e-06 0)
(0.000233418 -2.18421e-06 0)
(0.000241072 -2.31625e-06 0)
(0.000241072 -2.31625e-06 0)
(0.000249155 -2.44756e-06 0)
(0.000249155 -2.44756e-06 0)
(0.000257662 -2.57656e-06 0)
(0.000257662 -2.57656e-06 0)
(0.000266579 -2.70147e-06 0)
(0.000266579 -2.70147e-06 0)
(0.000275889 -2.82035e-06 0)
(0.000275889 -2.82035e-06 0)
(0.000285567 -2.93109e-06 0)
(0.000285567 -2.93109e-06 0)
(0.000295581 -3.03146e-06 0)
(0.000295581 -3.03146e-06 0)
(0.000305894 -3.11913e-06 0)
(0.000305894 -3.11913e-06 0)
(0.000316458 -3.19178e-06 0)
(0.000316458 -3.19178e-06 0)
(0.000327222 -3.24712e-06 0)
(0.000327222 -3.24712e-06 0)
(0.000338124 -3.28302e-06 0)
(0.000338124 -3.28302e-06 0)
(0.000349098 -3.29753e-06 0)
(0.000349098 -3.29753e-06 0)
(0.000360072 -3.28907e-06 0)
(0.000360072 -3.28907e-06 0)
(0.000370971 -3.25643e-06 0)
(0.000370971 -3.25643e-06 0)
(0.000381715 -3.19891e-06 0)
(0.000381715 -3.19891e-06 0)
(0.000392224 -3.11638e-06 0)
(0.000392224 -3.11638e-06 0)
(0.000402419 -3.00929e-06 0)
(0.000402419 -3.00929e-06 0)
(0.000412224 -2.87876e-06 0)
(0.000412224 -2.87876e-06 0)
(0.000421566 -2.72647e-06 0)
(0.000421566 -2.72647e-06 0)
(0.000430378 -2.55471e-06 0)
(0.000430378 -2.55471e-06 0)
(0.000438603 -2.36619e-06 0)
(0.000438603 -2.36619e-06 0)
(0.000446192 -2.16402e-06 0)
(0.000446192 -2.16402e-06 0)
(0.000453106 -1.95152e-06 0)
(0.000453106 -1.95152e-06 0)
(0.000459316 -1.73208e-06 0)
(0.000459316 -1.73208e-06 0)
(0.000464806 -1.50905e-06 0)
(0.000464806 -1.50905e-06 0)
(0.000469567 -1.28561e-06 0)
(0.000469567 -1.28561e-06 0)
(0.000473602 -1.06464e-06 0)
(0.000473602 -1.06464e-06 0)
(0.000476923 -8.48713e-07 0)
(0.000476923 -8.48713e-07 0)
(0.000479547 -6.40019e-07 0)
(0.000479547 -6.40019e-07 0)
(0.000481502 -4.40393e-07 0)
(0.000481502 -4.40393e-07 0)
(0.000482818 -2.51348e-07 0)
(0.000482818 -2.51348e-07 0)
(0.000483531 -7.41312e-08 0)
(0.000483531 -7.41312e-08 0)
(0.00048368 9.0204e-08 0)
(0.00048368 9.0204e-08 0)
(0.000483311 2.40725e-07 0)
(0.000483311 2.40725e-07 0)
(0.000482468 3.76552e-07 0)
(0.000482468 3.76552e-07 0)
(0.000481202 4.96811e-07 0)
(0.000481202 4.96811e-07 0)
(0.000479566 6.00603e-07 0)
(0.000479566 6.00603e-07 0)
(0.000477613 6.87006e-07 0)
(0.000477613 6.87006e-07 0)
(0.000475404 7.551e-07 0)
(0.000475404 7.551e-07 0)
(0.000472999 8.04026e-07 0)
(0.000472999 8.04026e-07 0)
(0.000470462 8.33054e-07 0)
(0.000470462 8.33054e-07 0)
(0.000467857 8.41677e-07 0)
(0.000467857 8.41677e-07 0)
(0.000465251 8.29705e-07 0)
(0.000465251 8.29705e-07 0)
(0.000462709 7.97344e-07 0)
(0.000462709 7.97344e-07 0)
(0.000460295 7.45278e-07 0)
(0.000460295 7.45278e-07 0)
(0.000458071 6.74706e-07 0)
(0.000458071 6.74706e-07 0)
(0.000456093 5.8737e-07 0)
(0.000456093 5.8737e-07 0)
(0.000454409 4.85535e-07 0)
(0.000454409 4.85535e-07 0)
(0.000453062 3.71946e-07 0)
(0.000453062 3.71946e-07 0)
(0.000452084 2.49752e-07 0)
(0.000452084 2.49752e-07 0)
(0.000451497 1.22402e-07 0)
(0.000451497 1.22402e-07 0)
(0.000451312 -6.47508e-09 0)
(0.000451312 -6.47508e-09 0)
(0.000451528 -1.33201e-07 0)
(0.000451528 -1.33201e-07 0)
(0.000452133 -2.54193e-07 0)
(0.000452133 -2.54193e-07 0)
(0.000453104 -3.66093e-07 0)
(0.000453104 -3.66093e-07 0)
(0.000454409 -4.65896e-07 0)
(0.000454409 -4.65896e-07 0)
(0.000456006 -5.51057e-07 0)
(0.000456006 -5.51057e-07 0)
(0.000457846 -6.19572e-07 0)
(0.000457846 -6.19572e-07 0)
(0.000459874 -6.70031e-07 0)
(0.000459874 -6.70031e-07 0)
(0.000462034 -7.0164e-07 0)
(0.000462034 -7.0164e-07 0)
(0.000464265 -7.14208e-07 0)
(0.000464265 -7.14208e-07 0)
(0.000466508 -7.0811e-07 0)
(0.000466508 -7.0811e-07 0)
(0.000468706 -6.84214e-07 0)
(0.000468706 -6.84214e-07 0)
(0.000470804 -6.43803e-07 0)
(0.000470804 -6.43803e-07 0)
(0.000472753 -5.88474e-07 0)
(0.000472753 -5.88474e-07 0)
(0.000474506 -5.20051e-07 0)
(0.000474506 -5.20051e-07 0)
(0.000476027 -4.40492e-07 0)
(0.000476027 -4.40492e-07 0)
(0.000477282 -3.51822e-07 0)
(0.000477282 -3.51822e-07 0)
(0.000478245 -2.56078e-07 0)
(0.000478245 -2.56078e-07 0)
(0.000478896 -1.55281e-07 0)
(0.000478896 -1.55281e-07 0)
(0.000479223 -5.14199e-08 0)
(0.000479223 -5.14199e-08 0)
(0.000479218 5.35391e-08 0)
(0.000479218 5.35391e-08 0)
(0.000478882 1.57642e-07 0)
(0.000478882 1.57642e-07 0)
(0.000478219 2.58927e-07 0)
(0.000478219 2.58927e-07 0)
(0.000477243 3.55407e-07 0)
(0.000477243 3.55407e-07 0)
(0.000475971 4.45071e-07 0)
(0.000475971 4.45071e-07 0)
(0.000474431 5.25889e-07 0)
(0.000474431 5.25889e-07 0)
(0.000472652 5.95845e-07 0)
(0.000472652 5.95845e-07 0)
(0.000470674 6.5299e-07 0)
(0.000470674 6.5299e-07 0)
(0.000468539 6.95514e-07 0)
(0.000468539 6.95514e-07 0)
(0.000466298 7.21827e-07 0)
(0.000466298 7.21827e-07 0)
(0.000464002 7.30658e-07 0)
(0.000464002 7.30658e-07 0)
(0.00046171 7.21146e-07 0)
(0.00046171 7.21146e-07 0)
(0.000459478 6.92926e-07 0)
(0.000459478 6.92926e-07 0)
(0.000457366 6.46196e-07 0)
(0.000457366 6.46196e-07 0)
(0.000455431 5.81756e-07 0)
(0.000455431 5.81756e-07 0)
(0.000453726 5.0102e-07 0)
(0.000453726 5.0102e-07 0)
(0.000452297 4.05994e-07 0)
(0.000452297 4.05994e-07 0)
(0.000451187 2.99222e-07 0)
(0.000451187 2.99222e-07 0)
(0.000450427 1.83701e-07 0)
(0.000450427 1.83701e-07 0)
(0.000450039 6.27686e-08 0)
(0.000450039 6.27686e-08 0)
(0.000450035 -6.00198e-08 0)
(0.000450035 -6.00198e-08 0)
(0.000450414 -1.81037e-07 0)
(0.000450414 -1.81037e-07 0)
(0.000451166 -2.96725e-07 0)
(0.000451166 -2.96725e-07 0)
(0.000452268 -4.03737e-07 0)
(0.000452268 -4.03737e-07 0)
(0.00045369 -4.99067e-07 0)
(0.00045369 -4.99067e-07 0)
(0.000455389 -5.80159e-07 0)
(0.000455389 -5.80159e-07 0)
(0.00045732 -6.44992e-07 0)
(0.00045732 -6.44992e-07 0)
(0.000459429 -6.92138e-07 0)
(0.000459429 -6.92138e-07 0)
(0.000461658 -7.20782e-07 0)
(0.000461658 -7.20782e-07 0)
(0.00046395 -7.30712e-07 0)
(0.00046395 -7.30712e-07 0)
(0.000466246 -7.22282e-07 0)
(0.000466246 -7.22282e-07 0)
(0.00046849 -6.96341e-07 0)
(0.00046849 -6.96341e-07 0)
(0.000470628 -6.54155e-07 0)
(0.000470628 -6.54155e-07 0)
(0.00047261 -5.97305e-07 0)
(0.00047261 -5.97305e-07 0)
(0.000474394 -5.27601e-07 0)
(0.000474394 -5.27601e-07 0)
(0.000475941 -4.46991e-07 0)
(0.000475941 -4.46991e-07 0)
(0.000477218 -3.57488e-07 0)
(0.000477218 -3.57488e-07 0)
(0.000478201 -2.61125e-07 0)
(0.000478201 -2.61125e-07 0)
(0.000478871 -1.59914e-07 0)
(0.000478871 -1.59914e-07 0)
(0.000479216 -5.58425e-08 0)
(0.000479216 -5.58425e-08 0)
(0.000479228 4.91271e-08 0)
(0.000479228 4.91271e-08 0)
(0.000478909 1.5304e-07 0)
(0.000478909 1.5304e-07 0)
(0.000478264 2.53934e-07 0)
(0.000478264 2.53934e-07 0)
(0.000477308 3.49818e-07 0)
(0.000477308 3.49818e-07 0)
(0.000476059 4.38675e-07 0)
(0.000476059 4.38675e-07 0)
(0.000474544 5.18469e-07 0)
(0.000474544 5.18469e-07 0)
(0.000472795 5.87175e-07 0)
(0.000472795 5.87175e-07 0)
(0.00047085 6.42833e-07 0)
(0.00047085 6.42833e-07 0)
(0.000468754 6.83619e-07 0)
(0.000468754 6.83619e-07 0)
(0.000466557 7.0793e-07 0)
(0.000466557 7.0793e-07 0)
(0.000464314 7.14476e-07 0)
(0.000464314 7.14476e-07 0)
(0.000462081 7.02378e-07 0)
(0.000462081 7.02378e-07 0)
(0.000459918 6.71253e-07 0)
(0.000459918 6.71253e-07 0)
(0.000457885 6.21276e-07 0)
(0.000457885 6.21276e-07 0)
(0.000456039 5.53228e-07 0)
(0.000456039 5.53228e-07 0)
(0.000454434 4.68505e-07 0)
(0.000454434 4.68505e-07 0)
(0.00045312 3.69097e-07 0)
(0.00045312 3.69097e-07 0)
(0.000452138 2.57538e-07 0)
(0.000452138 2.57538e-07 0)
(0.000451522 1.36822e-07 0)
(0.000451522 1.36822e-07 0)
(0.000451294 1.03011e-08 0)
(0.000451294 1.03011e-08 0)
(0.000451466 -1.18445e-07 0)
(0.000451466 -1.18445e-07 0)
(0.00045204 -2.45741e-07 0)
(0.00045204 -2.45741e-07 0)
(0.000453005 -3.67952e-07 0)
(0.000453005 -3.67952e-07 0)
(0.00045434 -4.81623e-07 0)
(0.00045434 -4.81623e-07 0)
(0.000456011 -5.83597e-07 0)
(0.000456011 -5.83597e-07 0)
(0.000457978 -6.71119e-07 0)
(0.000457978 -6.71119e-07 0)
(0.000460191 -7.41911e-07 0)
(0.000460191 -7.41911e-07 0)
(0.000462594 -7.94222e-07 0)
(0.000462594 -7.94222e-07 0)
(0.000465126 -8.2684e-07 0)
(0.000465126 -8.2684e-07 0)
(0.000467724 -8.39074e-07 0)
(0.000467724 -8.39074e-07 0)
(0.000470321 -8.30709e-07 0)
(0.000470321 -8.30709e-07 0)
(0.000472852 -8.01934e-07 0)
(0.000472852 -8.01934e-07 0)
(0.000475251 -7.53255e-07 0)
(0.000475251 -7.53255e-07 0)
(0.000477455 -6.85402e-07 0)
(0.000477455 -6.85402e-07 0)
(0.000479403 -5.99241e-07 0)
(0.000479403 -5.99241e-07 0)
(0.000481036 -4.95698e-07 0)
(0.000481036 -4.95698e-07 0)
(0.0004823 -3.75703e-07 0)
(0.0004823 -3.75703e-07 0)
(0.000483142 -2.40163e-07 0)
(0.000483142 -2.40163e-07 0)
(0.000483511 -8.99609e-08 0)
(0.000483511 -8.99609e-08 0)
(0.000483362 7.40186e-08 0)
(0.000483362 7.40186e-08 0)
(0.000482652 2.50839e-07 0)
(0.000482652 2.50839e-07 0)
(0.00048134 4.39444e-07 0)
(0.00048134 4.39444e-07 0)
(0.00047939 6.3859e-07 0)
(0.00047939 6.3859e-07 0)
(0.000476773 8.4677e-07 0)
(0.000476773 8.4677e-07 0)
(0.000473461 1.06216e-06 0)
(0.000473461 1.06216e-06 0)
(0.000469436 1.28257e-06 0)
(0.000469436 1.28257e-06 0)
(0.000464687 1.50546e-06 0)
(0.000464687 1.50546e-06 0)
(0.000459211 1.72795e-06 0)
(0.000459211 1.72795e-06 0)
(0.000453016 1.94689e-06 0)
(0.000453016 1.94689e-06 0)
(0.000446118 2.15894e-06 0)
(0.000446118 2.15894e-06 0)
(0.000438547 2.36072e-06 0)
(0.000438547 2.36072e-06 0)
(0.000430341 2.54892e-06 0)
(0.000430341 2.54892e-06 0)
(0.000421548 2.72046e-06 0)
(0.000421548 2.72046e-06 0)
(0.000412227 2.87261e-06 0)
(0.000412227 2.87261e-06 0)
(0.000402443 3.00311e-06 0)
(0.000402443 3.00311e-06 0)
(0.000392267 3.11025e-06 0)
(0.000392267 3.11025e-06 0)
(0.000381778 3.19294e-06 0)
(0.000381778 3.19294e-06 0)
(0.000371053 3.2507e-06 0)
(0.000371053 3.2507e-06 0)
(0.000360172 3.28366e-06 0)
(0.000360172 3.28366e-06 0)
(0.000349214 3.29251e-06 0)
(0.000349214 3.29251e-06 0)
(0.000338256 3.27844e-06 0)
(0.000338256 3.27844e-06 0)
(0.000327368 3.24303e-06 0)
(0.000327368 3.24303e-06 0)
(0.000316616 3.18821e-06 0)
(0.000316616 3.18821e-06 0)
(0.000306062 3.11609e-06 0)
(0.000306062 3.11609e-06 0)
(0.000295758 3.02896e-06 0)
(0.000295758 3.02896e-06 0)
(0.00028575 2.92914e-06 0)
(0.00028575 2.92914e-06 0)
(0.000276078 2.81892e-06 0)
(0.000276078 2.81892e-06 0)
(0.000266771 2.70054e-06 0)
(0.000266771 2.70054e-06 0)
(0.000257856 2.5761e-06 0)
(0.000257856 2.5761e-06 0)
(0.00024935 2.44755e-06 0)
(0.00024935 2.44755e-06 0)
(0.000241266 2.31665e-06 0)
(0.000241266 2.31665e-06 0)
(0.000233609 2.18497e-06 0)
(0.000233609 2.18497e-06 0)
(0.000226383 2.0539e-06 0)
(0.000226383 2.0539e-06 0)
(0.000219585 1.92461e-06 0)
(0.000219585 1.92461e-06 0)
(0.000213208 1.7981e-06 0)
(0.000213208 1.7981e-06 0)
(0.000207244 1.67518e-06 0)
(0.000207244 1.67518e-06 0)
(0.00020168 1.5565e-06 0)
(0.00020168 1.5565e-06 0)
(0.000196504 1.44257e-06 0)
(0.000196504 1.44257e-06 0)
(0.0001917 1.33375e-06 0)
(0.0001917 1.33375e-06 0)
(0.000187252 1.2303e-06 0)
(0.000187252 1.2303e-06 0)
(0.000183142 1.13238e-06 0)
(0.000183142 1.13238e-06 0)
(0.000179354 1.04005e-06 0)
(0.000179354 1.04005e-06 0)
(0.000175868 9.53295e-07 0)
(0.000175868 9.53295e-07 0)
(0.000172667 8.72058e-07 0)
(0.000172667 8.72058e-07 0)
(0.000169733 7.9622e-07 0)
(0.000169733 7.9622e-07 0)
(0.000167049 7.25624e-07 0)
(0.000167049 7.25624e-07 0)
(0.000164599 6.60085e-07 0)
(0.000164599 6.60085e-07 0)
(0.000162365 5.99394e-07 0)
(0.000162365 5.99394e-07 0)
(0.000160332 5.43326e-07 0)
(0.000160332 5.43326e-07 0)
(0.000158485 4.91645e-07 0)
(0.000158485 4.91645e-07 0)
(0.00015681 4.44111e-07 0)
(0.00015681 4.44111e-07 0)
(0.000155294 4.00479e-07 0)
(0.000155294 4.00479e-07 0)
(0.000153923 3.60509e-07 0)
(0.000153923 3.60509e-07 0)
(0.000152686 3.23962e-07 0)
(0.000152686 3.23962e-07 0)
(0.000151571 2.90606e-07 0)
(0.000151571 2.90606e-07 0)
(0.000150569 2.60217e-07 0)
(0.000150569 2.60217e-07 0)
(0.000149668 2.32579e-07 0)
(0.000149668 2.32579e-07 0)
(0.000148861 2.07486e-07 0)
(0.000148861 2.07486e-07 0)
(0.000148139 1.84741e-07 0)
(0.000148139 1.84741e-07 0)
(0.000147494 1.64158e-07 0)
(0.000147494 1.64158e-07 0)
(0.000146919 1.45564e-07 0)
(0.000146919 1.45564e-07 0)
(0.000146407 1.28793e-07 0)
(0.000146407 1.28793e-07 0)
(0.000145953 1.13692e-07 0)
(0.000145953 1.13692e-07 0)
(0.00014555 1.00116e-07 0)
(0.00014555 1.00116e-07 0)
(0.000145194 8.79331e-08 0)
(0.000145194 8.79331e-08 0)
(0.00014488 7.7018e-08 0)
(0.00014488 7.7018e-08 0)
(0.000144603 6.7256e-08 0)
(0.000144603 6.7256e-08 0)
(0.00014436 5.8541e-08 0)
(0.00014436 5.8541e-08 0)
(0.000144147 5.07749e-08 0)
(0.000144147 5.07749e-08 0)
(0.000143962 4.38676e-08 0)
(0.000143962 4.38676e-08 0)
(0.0001438 3.77364e-08 0)
(0.0001438 3.77364e-08 0)
(0.00014366 3.23053e-08 0)
(0.00014366 3.23053e-08 0)
(0.000143539 2.75049e-08 0)
(0.000143539 2.75049e-08 0)
(0.000143436 2.32716e-08 0)
(0.000143436 2.32716e-08 0)
(0.000143347 1.95477e-08 0)
(0.000143347 1.95477e-08 0)
(0.000143271 1.62803e-08 0)
(0.000143271 1.62803e-08 0)
(0.000143207 1.34215e-08 0)
(0.000143207 1.34215e-08 0)
(0.000143154 1.09278e-08 0)
(0.000143154 1.09278e-08 0)
(0.000143109 8.75967e-09 0)
(0.000143109 8.75967e-09 0)
(0.000143072 6.8814e-09 0)
(0.000143072 6.8814e-09 0)
(0.000143042 5.2607e-09 0)
(0.000143042 5.2607e-09 0)
(0.000143018 3.86843e-09 0)
(0.000143018 3.86843e-09 0)
(0.000143 2.6783e-09 0)
(0.000143 2.6783e-09 0)
(0.000142985 1.6667e-09 0)
(0.000142985 1.6667e-09 0)
(0.000142975 8.12372e-10 0)
(0.000142975 8.12372e-10 0)
(0.000142968 9.62797e-11 0)
(0.000142968 9.62797e-11 0)
(0.000142964 -4.98642e-10 0)
(0.000142964 -4.98642e-10 0)
(0.000142962 -9.87648e-10 0)
(0.000142962 -9.87648e-10 0)
(0.000142961 -1.38436e-09 0)
(0.000142961 -1.38436e-09 0)
(0.000142963 -1.70091e-09 0)
(0.000142963 -1.70091e-09 0)
(0.000142966 -1.9481e-09 0)
(0.000142966 -1.9481e-09 0)
(0.00014297 -2.1355e-09 0)
(0.00014297 -2.1355e-09 0)
(0.000142975 -2.27162e-09 0)
(0.000142975 -2.27162e-09 0)
(0.00014298 -2.36397e-09 0)
(0.00014298 -2.36397e-09 0)
(0.000142986 -2.41917e-09 0)
(0.000142986 -2.41917e-09 0)
(0.000142993 -2.44306e-09 0)
(0.000142993 -2.44306e-09 0)
(0.000142999 -2.44075e-09 0)
(0.000142999 -2.44075e-09 0)
(0.000143006 -2.41675e-09 0)
(0.000143006 -2.41675e-09 0)
(0.000143013 -2.37496e-09 0)
(0.000143013 -2.37496e-09 0)
(0.00014302 -2.3188e-09 0)
(0.00014302 -2.3188e-09 0)
(0.000143027 -2.25122e-09 0)
(0.000143027 -2.25122e-09 0)
(0.000143033 -2.1748e-09 0)
(0.000143033 -2.1748e-09 0)
(0.00014304 -2.09172e-09 0)
(0.00014304 -2.09172e-09 0)
(0.000143046 -2.00387e-09 0)
(0.000143046 -2.00387e-09 0)
(0.000143052 -1.91287e-09 0)
(0.000143052 -1.91287e-09 0)
(0.000143058 -1.82007e-09 0)
(0.000143058 -1.82007e-09 0)
(0.000143064 -1.72663e-09 0)
(0.000143064 -1.72663e-09 0)
(0.000143069 -1.63349e-09 0)
(0.000143069 -1.63349e-09 0)
(0.000143074 -1.54146e-09 0)
(0.000143074 -1.54146e-09 0)
(0.000143079 -1.45116e-09 0)
(0.000143079 -1.45116e-09 0)
(0.000143083 -1.36314e-09 0)
(0.000143083 -1.36314e-09 0)
(0.000143088 -1.27779e-09 0)
(0.000143088 -1.27779e-09 0)
(0.000143092 -1.19543e-09 0)
(0.000143092 -1.19543e-09 0)
(0.000143096 -1.11629e-09 0)
(0.000143096 -1.11629e-09 0)
(0.000143099 -1.04056e-09 0)
(0.000143099 -1.04056e-09 0)
(0.000143102 -9.68316e-10 0)
(0.000143102 -9.68316e-10 0)
(0.000143106 -8.99634e-10 0)
(0.000143106 -8.99634e-10 0)
(0.000143108 -8.34523e-10 0)
(0.000143108 -8.34523e-10 0)
(0.000143111 -7.72964e-10 0)
(0.000143111 -7.72964e-10 0)
(0.000143114 -7.14909e-10 0)
(0.000143114 -7.14909e-10 0)
(0.000143116 -6.60285e-10 0)
(0.000143116 -6.60285e-10 0)
(0.000143118 -6.09001e-10 0)
(0.000143118 -6.09001e-10 0)
(0.00014312 -5.60953e-10 0)
(0.00014312 -5.60953e-10 0)
(0.000143122 -5.16022e-10 0)
(0.000143122 -5.16022e-10 0)
(0.000143124 -4.74084e-10 0)
(0.000143124 -4.74084e-10 0)
(0.000143125 -4.35008e-10 0)
(0.000143125 -4.35008e-10 0)
(0.000143127 -3.9866e-10 0)
(0.000143127 -3.9866e-10 0)
(0.000143128 -3.64903e-10 0)
(0.000143128 -3.64903e-10 0)
(0.000143129 -3.33601e-10 0)
(0.000143129 -3.33601e-10 0)
(0.00014313 -3.04618e-10 0)
(0.00014313 -3.04618e-10 0)
(0.000143131 -2.77821e-10 0)
(0.000143131 -2.77821e-10 0)
(0.000143132 -2.5308e-10 0)
(0.000143132 -2.5308e-10 0)
(0.000143133 -2.30269e-10 0)
(0.000143133 -2.30269e-10 0)
(0.000143134 -2.09264e-10 0)
(0.000143134 -2.09264e-10 0)
(0.000143134 -1.89947e-10 0)
(0.000143134 -1.89947e-10 0)
(0.000143135 -1.72206e-10 0)
(0.000143135 -1.72206e-10 0)
(0.000143136 -1.55932e-10 0)
(0.000143136 -1.55932e-10 0)
(0.000143136 -1.41022e-10 0)
(0.000143136 -1.41022e-10 0)
(0.000143137 -1.27379e-10 0)
(0.000143137 -1.27379e-10 0)
(0.000143137 -1.14909e-10 0)
(0.000143137 -1.14909e-10 0)
(0.000143138 -1.03527e-10 0)
(0.000143138 -1.03527e-10 0)
(0.000143138 -9.31485e-11 0)
(0.000143138 -9.31485e-11 0)
(0.000143138 -8.36972e-11 0)
(0.000143138 -8.36972e-11 0)
(0.000143138 -7.51004e-11 0)
(0.000143138 -7.51004e-11 0)
(0.000143139 -6.72901e-11 0)
(0.000143139 -6.72901e-11 0)
(0.000143139 -6.02029e-11 0)
(0.000143139 -6.02029e-11 0)
(0.000143139 -5.37797e-11 0)
(0.000143139 -5.37797e-11 0)
(0.000143139 -4.79653e-11 0)
(0.000143139 -4.79653e-11 0)
(0.00014314 -4.27086e-11 0)
(0.00014314 -4.27086e-11 0)
(0.00014314 -3.7962e-11 0)
(0.00014314 -3.7962e-11 0)
(0.00014314 -3.36817e-11 0)
(0.00014314 -3.36817e-11 0)
(0.00014314 -2.98268e-11 0)
(0.00014314 -2.98268e-11 0)
(0.00014314 -2.63597e-11 0)
(0.00014314 -2.63597e-11 0)
(0.00014314 -2.32458e-11 0)
(0.00014314 -2.32458e-11 0)
(0.00014314 -2.04531e-11 0)
(0.00014314 -2.04531e-11 0)
(0.00014314 -1.79522e-11 0)
(0.00014314 -1.79522e-11 0)
(0.00014314 -1.5716e-11 0)
(0.00014314 -1.5716e-11 0)
(0.00014314 -1.37198e-11 0)
(0.00014314 -1.37198e-11 0)
(0.00014314 -1.19409e-11 0)
(0.00014314 -1.19409e-11 0)
(0.00014314 -1.03584e-11 0)
(0.00014314 -1.03584e-11 0)
(0.000143141 -8.95338e-12 0)
(0.000143141 -8.95338e-12 0)
(0.000143141 -7.70852e-12 0)
(0.000143141 -7.70852e-12 0)
(0.000143141 -6.60801e-12 0)
(0.000143141 -6.60801e-12 0)
(0.000143141 -5.63748e-12 0)
(0.000143141 -5.63748e-12 0)
(0.000143141 -4.78389e-12 0)
(0.000143141 -4.78389e-12 0)
(0.000143141 -4.0354e-12 0)
(0.000143141 -4.0354e-12 0)
(0.000143141 -3.38131e-12 0)
(0.000143141 -3.38131e-12 0)
(0.000143141 -2.81195e-12 0)
(0.000143141 -2.81195e-12 0)
(0.000143141 -2.31861e-12 0)
(0.000143141 -2.31861e-12 0)
(0.000143141 -1.89347e-12 0)
(0.000143141 -1.89347e-12 0)
(0.000143141 -1.52953e-12 0)
(0.000143141 -1.52953e-12 0)
(0.000143141 -1.22055e-12 0)
(0.000143141 -1.22055e-12 0)
(0.000143141 -9.61011e-13 0)
(0.000143141 -9.61011e-13 0)
(0.000143141 -7.4604e-13 0)
(0.000143141 -7.4604e-13 0)
(0.000143141 -5.714e-13 0)
(0.000143141 -5.714e-13 0)
(0.000143141 -4.3345e-13 0)
(0.000143141 -4.3345e-13 0)
(0.000143141 -3.29127e-13 0)
(0.000143141 -3.29127e-13 0)
(0.000143141 -2.55941e-13 0)
(0.000143141 -2.55941e-13 0)
(0.000143141 -2.12006e-13 0)
(0.000143141 -2.12006e-13 0)
(0.000143141 -1.961e-13 0)
(0.000143141 -1.961e-13 0)
(0.000143141 -2.0781e-13 0)
(0.000143141 -2.0781e-13 0)
(0.000143141 -2.47819e-13 0)
(0.000143141 -2.47819e-13 0)
(0.000143141 -3.18534e-13 0)
(0.000143141 -3.18534e-13 0)
(0.000143141 -4.25501e-13 0)
(0.000143141 -4.25501e-13 0)
(0.000143141 -5.79816e-13 0)
(0.000143141 -5.79816e-13 0)
(0.000143141 -8.01244e-13 0)
(0.000143141 -8.01244e-13 0)
(0.000143141 -1.12982e-12 0)
(0.000143141 -1.12982e-12 0)
(0.000143141 -1.66831e-12 0)
(0.000143141 -1.66831e-12 0)
(0.000143141 -2.57636e-12 0)
(0.000143141 -2.57636e-12 0)
(0.000143141 -3.65059e-12 0)
(0.000143141 -3.65059e-12 0)
(0.000141883 -1.50902e-07 0)
(0.000141883 -1.50902e-07 0)
(0.000142653 -1.08738e-07 0)
(0.000142653 -1.08738e-07 0)
(0.000142842 -5.66448e-08 0)
(0.000142842 -5.66448e-08 0)
(0.000142897 -3.25943e-08 0)
(0.000142897 -3.25943e-08 0)
(0.000142947 -1.91125e-08 0)
(0.000142947 -1.91125e-08 0)
(0.000142981 -1.07601e-08 0)
(0.000142981 -1.07601e-08 0)
(0.000143001 -5.92376e-09 0)
(0.000143001 -5.92376e-09 0)
(0.000143012 -3.1032e-09 0)
(0.000143012 -3.1032e-09 0)
(0.000143018 -1.34383e-09 0)
(0.000143018 -1.34383e-09 0)
(0.00014302 -1.82646e-10 0)
(0.00014302 -1.82646e-10 0)
(0.000143019 6.13664e-10 0)
(0.000143019 6.13664e-10 0)
(0.000143017 1.17492e-09 0)
(0.000143017 1.17492e-09 0)
(0.000143014 1.57545e-09 0)
(0.000143014 1.57545e-09 0)
(0.000143009 1.85855e-09 0)
(0.000143009 1.85855e-09 0)
(0.000143004 2.04994e-09 0)
(0.000143004 2.04994e-09 0)
(0.000142999 2.16483e-09 0)
(0.000142999 2.16483e-09 0)
(0.000142994 2.21165e-09 0)
(0.000142994 2.21165e-09 0)
(0.000142989 2.19413e-09 0)
(0.000142989 2.19413e-09 0)
(0.000142984 2.11261e-09 0)
(0.000142984 2.11261e-09 0)
(0.00014298 1.96469e-09 0)
(0.00014298 1.96469e-09 0)
(0.000142977 1.74571e-09 0)
(0.000142977 1.74571e-09 0)
(0.000142976 1.44902e-09 0)
(0.000142976 1.44902e-09 0)
(0.000142975 1.06608e-09 0)
(0.000142975 1.06608e-09 0)
(0.000142977 5.86501e-10 0)
(0.000142977 5.86501e-10 0)
(0.000142981 -1.9545e-12 0)
(0.000142981 -1.9545e-12 0)
(0.000142988 -7.13439e-10 0)
(0.000142988 -7.13439e-10 0)
(0.000142998 -1.56412e-09 0)
(0.000142998 -1.56412e-09 0)
(0.000143012 -2.57233e-09 0)
(0.000143012 -2.57233e-09 0)
(0.00014303 -3.7587e-09 0)
(0.00014303 -3.7587e-09 0)
(0.000143054 -5.14635e-09 0)
(0.000143054 -5.14635e-09 0)
(0.000143083 -6.76111e-09 0)
(0.000143083 -6.76111e-09 0)
(0.000143119 -8.63177e-09 0)
(0.000143119 -8.63177e-09 0)
(0.000143163 -1.07903e-08 0)
(0.000143163 -1.07903e-08 0)
(0.000143216 -1.3272e-08 0)
(0.000143216 -1.3272e-08 0)
(0.00014328 -1.61163e-08 0)
(0.00014328 -1.61163e-08 0)
(0.000143355 -1.93662e-08 0)
(0.000143355 -1.93662e-08 0)
(0.000143443 -2.30697e-08 0)
(0.000143443 -2.30697e-08 0)
(0.000143546 -2.72791e-08 0)
(0.000143546 -2.72791e-08 0)
(0.000143666 -3.20521e-08 0)
(0.000143666 -3.20521e-08 0)
(0.000143805 -3.74521e-08 0)
(0.000143805 -3.74521e-08 0)
(0.000143965 -4.35483e-08 0)
(0.000143965 -4.35483e-08 0)
(0.000144149 -5.04164e-08 0)
(0.000144149 -5.04164e-08 0)
(0.00014436 -5.81391e-08 0)
(0.00014436 -5.81391e-08 0)
(0.000144602 -6.68063e-08 0)
(0.000144602 -6.68063e-08 0)
(0.000144877 -7.65158e-08 0)
(0.000144877 -7.65158e-08 0)
(0.000145189 -8.73739e-08 0)
(0.000145189 -8.73739e-08 0)
(0.000145543 -9.94954e-08 0)
(0.000145543 -9.94954e-08 0)
(0.000145943 -1.13004e-07 0)
(0.000145943 -1.13004e-07 0)
(0.000146395 -1.28035e-07 0)
(0.000146395 -1.28035e-07 0)
(0.000146904 -1.4473e-07 0)
(0.000146904 -1.4473e-07 0)
(0.000147476 -1.63244e-07 0)
(0.000147476 -1.63244e-07 0)
(0.000148118 -1.83742e-07 0)
(0.000148118 -1.83742e-07 0)
(0.000148836 -2.06398e-07 0)
(0.000148836 -2.06398e-07 0)
(0.000149639 -2.314e-07 0)
(0.000149639 -2.314e-07 0)
(0.000150535 -2.58943e-07 0)
(0.000150535 -2.58943e-07 0)
(0.000151533 -2.89234e-07 0)
(0.000151533 -2.89234e-07 0)
(0.000152642 -3.2249e-07 0)
(0.000152642 -3.2249e-07 0)
(0.000153874 -3.58936e-07 0)
(0.000153874 -3.58936e-07 0)
(0.000155239 -3.98806e-07 0)
(0.000155239 -3.98806e-07 0)
(0.000156749 -4.42338e-07 0)
(0.000156749 -4.42338e-07 0)
(0.000158418 -4.89776e-07 0)
(0.000158418 -4.89776e-07 0)
(0.000160258 -5.41364e-07 0)
(0.000160258 -5.41364e-07 0)
(0.000162284 -5.97345e-07 0)
(0.000162284 -5.97345e-07 0)
(0.00016451 -6.57957e-07 0)
(0.00016451 -6.57957e-07 0)
(0.000166954 -7.23426e-07 0)
(0.000166954 -7.23426e-07 0)
(0.00016963 -7.93963e-07 0)
(0.00016963 -7.93963e-07 0)
(0.000172555 -8.69758e-07 0)
(0.000172555 -8.69758e-07 0)
(0.000175748 -9.50967e-07 0)
(0.000175748 -9.50967e-07 0)
(0.000179226 -1.03771e-06 0)
(0.000179226 -1.03771e-06 0)
(0.000183007 -1.13006e-06 0)
(0.000183007 -1.13006e-06 0)
(0.000187109 -1.22802e-06 0)
(0.000187109 -1.22802e-06 0)
(0.000191549 -1.33154e-06 0)
(0.000191549 -1.33154e-06 0)
(0.000196346 -1.44045e-06 0)
(0.000196346 -1.44045e-06 0)
(0.000201515 -1.55451e-06 0)
(0.000201515 -1.55451e-06 0)
(0.000207071 -1.67336e-06 0)
(0.000207071 -1.67336e-06 0)
(0.00021303 -1.79649e-06 0)
(0.00021303 -1.79649e-06 0)
(0.000219401 -1.92324e-06 0)
(0.000219401 -1.92324e-06 0)
(0.000226195 -2.05282e-06 0)
(0.000226195 -2.05282e-06 0)
(0.000233418 -2.18421e-06 0)
(0.000233418 -2.18421e-06 0)
(0.000241072 -2.31625e-06 0)
(0.000241072 -2.31625e-06 0)
(0.000249155 -2.44756e-06 0)
(0.000249155 -2.44756e-06 0)
(0.000257662 -2.57656e-06 0)
(0.000257662 -2.57656e-06 0)
(0.000266579 -2.70147e-06 0)
(0.000266579 -2.70147e-06 0)
(0.000275889 -2.82035e-06 0)
(0.000275889 -2.82035e-06 0)
(0.000285567 -2.93109e-06 0)
(0.000285567 -2.93109e-06 0)
(0.000295581 -3.03146e-06 0)
(0.000295581 -3.03146e-06 0)
(0.000305894 -3.11913e-06 0)
(0.000305894 -3.11913e-06 0)
(0.000316458 -3.19178e-06 0)
(0.000316458 -3.19178e-06 0)
(0.000327222 -3.24712e-06 0)
(0.000327222 -3.24712e-06 0)
(0.000338124 -3.28302e-06 0)
(0.000338124 -3.28302e-06 0)
(0.000349098 -3.29753e-06 0)
(0.000349098 -3.29753e-06 0)
(0.000360072 -3.28907e-06 0)
(0.000360072 -3.28907e-06 0)
(0.000370971 -3.25643e-06 0)
(0.000370971 -3.25643e-06 0)
(0.000381715 -3.19891e-06 0)
(0.000381715 -3.19891e-06 0)
(0.000392224 -3.11638e-06 0)
(0.000392224 -3.11638e-06 0)
(0.000402419 -3.00929e-06 0)