/*--------------------------------*- C++ -*----------------------------------*\
  =========                 |
  \\      /  F ield         | OpenFOAM: The Open Source CFD Toolbox
   \\    /   O peration     | Website:  https://openfoam.org
    \\  /    A nd           | Version:  7
     \\/     M anipulation  |
\*---------------------------------------------------------------------------*/
FoamFile
{
    version     2.0;
    format      ascii;
    class       volScalarField;
    location    "1";
    object      gradTx;
}
// * * * * * * * * * * * * * * * * * * * * * * * * * * * * * * * * * * * * * //

dimensions      [0 -1 0 1 0 0 0];

internalField   nonuniform List<scalar> 5(1110.73 491.455 363.636 599.455 1434.73);

boundaryField
{
    left
    {
        type            calculated;
        value           uniform 1580.58;
    }
    right
    {
        type            calculated;
        value           uniform 2055.78;
    }
    empty
    {
        type            empty;
    }
}


// ************************************************************************* //
