/*--------------------------------*- C++ -*----------------------------------*\
  =========                 |
  \\      /  F ield         | OpenFOAM: The Open Source CFD Toolbox
   \\    /   O peration     | Website:  https://openfoam.org
    \\  /    A nd           | Version:  7
     \\/     M anipulation  |
\*---------------------------------------------------------------------------*/
FoamFile
{
    version     2.0;
    format      ascii;
    class       volScalarField;
    location    "3";
    object      gradTx;
}
// * * * * * * * * * * * * * * * * * * * * * * * * * * * * * * * * * * * * * //

dimensions      [0 -1 0 1 0 0 0];

internalField   nonuniform List<scalar> 5(803.438 723.141 709.241 809.541 954.638);

boundaryField
{
    left
    {
        type            calculated;
        value           uniform 847.372;
    }
    right
    {
        type            calculated;
        value           uniform 1021.9;
    }
    empty
    {
        type            empty;
    }
}


// ************************************************************************* //
