/*--------------------------------*- C++ -*----------------------------------*\
  =========                 |
  \\      /  F ield         | OpenFOAM: The Open Source CFD Toolbox
   \\    /   O peration     | Website:  https://openfoam.org
    \\  /    A nd           | Version:  7
     \\/     M anipulation  |
\*---------------------------------------------------------------------------*/
FoamFile
{
    version     2.0;
    format      ascii;
    class       volVectorField;
    location    "0";
    object      U;
}
// * * * * * * * * * * * * * * * * * * * * * * * * * * * * * * * * * * * * * //

dimensions      [0 1 -1 0 0 0 0];

internalField   uniform (0 0 0);

boundaryField
{
    inlet
    {
        type            fixedValue;
        value           nonuniform List<vector> 
150
(
(0.000101473 0 0)
(0.000302384 0 0)
(0.00050058 0 0)
(0.00069606 0 0)
(0.000888826 0 0)
(0.00107888 0 0)
(0.00126621 0 0)
(0.00145083 0 0)
(0.00163274 0 0)
(0.00181193 0 0)
(0.0019884 0 0)
(0.00216216 0 0)
(0.00233321 0 0)
(0.00250154 0 0)
(0.00266716 0 0)
(0.00283006 0 0)
(0.00299024 0 0)
(0.00314771 0 0)
(0.00330247 0 0)
(0.00345451 0 0)
(0.00360383 0 0)
(0.00375044 0 0)
(0.00389434 0 0)
(0.00403552 0 0)
(0.00417399 0 0)
(0.00430974 0 0)
(0.00444277 0 0)
(0.00457309 0 0)
(0.0047007 0 0)
(0.00482559 0 0)
(0.00494776 0 0)
(0.00506722 0 0)
(0.00518397 0 0)
(0.005298 0 0)
(0.00540931 0 0)
(0.00551791 0 0)
(0.0056238 0 0)
(0.00572697 0 0)
(0.00582743 0 0)
(0.00592517 0 0)
(0.00602019 0 0)
(0.0061125 0 0)
(0.0062021 0 0)
(0.00628898 0 0)
(0.00637314 0 0)
(0.00645459 0 0)
(0.00653333 0 0)
(0.00660935 0 0)
(0.00668265 0 0)
(0.00675324 0 0)
(0.00682112 0 0)
(0.00688628 0 0)
(0.00694872 0 0)
(0.00700845 0 0)
(0.00706547 0 0)
(0.00711977 0 0)
(0.00717135 0 0)
(0.00722022 0 0)
(0.00726638 0 0)
(0.00730982 0 0)
(0.00735054 0 0)
(0.00738855 0 0)
(0.00742385 0 0)
(0.00745643 0 0)
(0.0074863 0 0)
(0.00751345 0 0)
(0.00753788 0 0)
(0.0075596 0 0)
(0.00757861 0 0)
(0.0075949 0 0)
(0.00760847 0 0)
(0.00761933 0 0)
(0.00762748 0 0)
(0.00763291 0 0)
(0.00763562 0 0)
(0.00763562 0 0)
(0.00763291 0 0)
(0.00762748 0 0)
(0.00761933 0 0)
(0.00760847 0 0)
(0.0075949 0 0)
(0.00757861 0 0)
(0.0075596 0 0)
(0.00753788 0 0)
(0.00751345 0 0)
(0.0074863 0 0)
(0.00745643 0 0)
(0.00742385 0 0)
(0.00738855 0 0)
(0.00735054 0 0)
(0.00730982 0 0)
(0.00726638 0 0)
(0.00722022 0 0)
(0.00717135 0 0)
(0.00711977 0 0)
(0.00706547 0 0)
(0.00700845 0 0)
(0.00694872 0 0)
(0.00688628 0 0)
(0.00682112 0 0)
(0.00675324 0 0)
(0.00668265 0 0)
(0.00660935 0 0)
(0.00653333 0 0)
(0.00645459 0 0)
(0.00637314 0 0)
(0.00628898 0 0)
(0.0062021 0 0)
(0.0061125 0 0)
(0.00602019 0 0)
(0.00592517 0 0)
(0.00582743 0 0)
(0.00572697 0 0)
(0.0056238 0 0)
(0.00551791 0 0)
(0.00540931 0 0)
(0.005298 0 0)
(0.00518397 0 0)
(0.00506722 0 0)
(0.00494776 0 0)
(0.00482559 0 0)
(0.0047007 0 0)
(0.00457309 0 0)
(0.00444277 0 0)
(0.00430974 0 0)
(0.00417399 0 0)
(0.00403552 0 0)
(0.00389434 0 0)
(0.00375044 0 0)
(0.00360383 0 0)
(0.00345451 0 0)
(0.00330247 0 0)
(0.00314771 0 0)
(0.00299024 0 0)
(0.00283006 0 0)
(0.00266716 0 0)
(0.00250154 0 0)
(0.00233321 0 0)
(0.00216216 0 0)
(0.0019884 0 0)
(0.00181193 0 0)
(0.00163274 0 0)
(0.00145083 0 0)
(0.00126621 0 0)
(0.00107888 0 0)
(0.000888826 0 0)
(0.00069606 0 0)
(0.00050058 0 0)
(0.000302384 0 0)
(0.000101473 0 0)
)
;
    }
    outlet
    {
        type            zeroGradient;
    }
    top
    {
        type            noSlip;
    }
    bottom
    {
        type            noSlip;
    }
    frontAndBack
    {
        type            empty;
    }
}


// ************************************************************************* //
