# Field minima and maxima
# Time          	field           	min             	location(min)   	max             	location(max)   
0.05            	p               	0.00000000e+00	(4.90000000e+01 6.40000000e+01 0.00000000e+00)	3.44452564e+03	(5.77350269e-01 7.00000000e+00 0.00000000e+00)
0.05            	U               	(2.15828857e-01 -2.03639125e-01 0.00000000e+00)	(6.66666667e-01 1.53333333e+01 0.00000000e+00)	(1.18330874e+00 4.13976592e-01 1.31670341e-14)	(2.57735027e+00 1.00000000e+00 0.00000000e+00)
0.1             	p               	-1.09418087e+01	(5.66148568e+01 1.19325506e+01 0.00000000e+00)	2.86754340e+00	(5.50392380e+01 -4.24985903e+00 0.00000000e+00)
0.1             	U               	(2.37349248e-01 -2.18695762e-01 0.00000000e+00)	(6.66666667e-01 1.53333333e+01 0.00000000e+00)	(1.35415667e+00 2.24361011e+00 3.90287433e-18)	(4.61497648e+01 2.34605128e+01 0.00000000e+00)
0.15            	p               	-5.79181486e+00	(5.66148568e+01 1.19325506e+01 0.00000000e+00)	3.78853995e+00	(5.50392380e+01 -4.24985903e+00 0.00000000e+00)
0.15            	U               	(2.52760761e-01 -2.27701479e-01 0.00000000e+00)	(6.66666667e-01 1.53333333e+01 0.00000000e+00)	(1.34845896e+00 2.23759394e+00 2.48458091e-18)	(4.61497648e+01 2.34605128e+01 0.00000000e+00)
0.2             	p               	-4.11535930e+00	(5.66148568e+01 1.19325506e+01 0.00000000e+00)	3.94582636e+00	(5.50392380e+01 -4.24985903e+00 0.00000000e+00)
0.2             	U               	(2.64667456e-01 -2.33262813e-01 0.00000000e+00)	(6.66666667e-01 1.53333333e+01 0.00000000e+00)	(1.34497330e+00 2.23238538e+00 1.48866405e-18)	(4.61497648e+01 2.34605128e+01 0.00000000e+00)
0.25            	p               	-3.15301753e+00	(5.66148568e+01 1.19325506e+01 0.00000000e+00)	4.48062235e+00	(5.38541556e+01 -3.99308064e+00 0.00000000e+00)
0.25            	U               	(2.74264323e-01 -2.36557677e-01 0.00000000e+00)	(6.66666667e-01 1.53333333e+01 0.00000000e+00)	(1.34318283e+00 2.22745900e+00 9.07759163e-19)	(4.61497648e+01 2.34605128e+01 0.00000000e+00)
0.3             	p               	-2.64294578e+00	(5.66148568e+01 1.19325506e+01 0.00000000e+00)	4.63537252e+00	(5.38541556e+01 -3.99308064e+00 0.00000000e+00)
0.3             	U               	(2.82247913e-01 -2.38277615e-01 0.00000000e+00)	(6.66666667e-01 1.53333333e+01 0.00000000e+00)	(1.34272011e+00 2.22285219e+00 5.56411559e-19)	(4.61497648e+01 2.34605128e+01 0.00000000e+00)
0.35            	p               	-2.38996037e+00	(5.66148568e+01 1.19325506e+01 0.00000000e+00)	4.57676268e+00	(5.38541556e+01 -3.99308064e+00 0.00000000e+00)
0.35            	U               	(2.89056381e-01 -2.38862435e-01 0.00000000e+00)	(6.66666667e-01 1.53333333e+01 0.00000000e+00)	(1.34323801e+00 2.21850330e+00 3.48857247e-19)	(4.61497648e+01 2.34605128e+01 0.00000000e+00)
0.4             	p               	-2.28941413e+00	(5.66148568e+01 1.19325506e+01 0.00000000e+00)	4.41157230e+00	(5.38541556e+01 -3.99308064e+00 0.00000000e+00)
0.4             	U               	(2.94979859e-01 -2.38606664e-01 0.00000000e+00)	(6.66666667e-01 1.53333333e+01 0.00000000e+00)	(1.34447334e+00 2.21436540e+00 2.36393019e-19)	(4.61497648e+01 2.34605128e+01 0.00000000e+00)
0.45            	p               	-2.29725302e+00	(5.66148568e+01 1.19325506e+01 0.00000000e+00)	4.17051496e+00	(5.38541556e+01 -3.99308064e+00 0.00000000e+00)
0.45            	U               	(3.00216349e-01 -2.37714829e-01 0.00000000e+00)	(6.66666667e-01 1.53333333e+01 0.00000000e+00)	(1.34621234e+00 2.21039867e+00 1.79602931e-19)	(4.61497648e+01 2.34605128e+01 0.00000000e+00)
0.5             	p               	-2.37124774e+00	(5.66148568e+01 1.19325506e+01 0.00000000e+00)	3.85589552e+00	(5.38541556e+01 -3.99308064e+00 0.00000000e+00)
0.5             	U               	(3.04896720e-01 -2.36324915e-01 0.00000000e+00)	(6.66666667e-01 1.53333333e+01 0.00000000e+00)	(1.34828480e+00 2.20659237e+00 1.59383106e-19)	(4.61497648e+01 2.34605128e+01 0.00000000e+00)
0.55            	p               	-2.48102905e+00	(5.66148568e+01 1.19325506e+01 0.00000000e+00)	3.69070228e+00	(5.77350269e-01 7.00000000e+00 0.00000000e+00)
0.55            	U               	(3.09106692e-01 -2.34527807e-01 0.00000000e+00)	(6.66666667e-01 1.53333333e+01 0.00000000e+00)	(1.35054796e+00 2.20292325e+00 1.63622617e-19)	(4.61497648e+01 2.34605128e+01 0.00000000e+00)
0.6             	p               	-2.60277125e+00	(5.66148568e+01 1.19325506e+01 0.00000000e+00)	3.59620675e+00	(5.77350269e-01 7.00000000e+00 0.00000000e+00)
0.6             	U               	(3.12938791e-01 -2.32420408e-01 0.00000000e+00)	(6.66666667e-01 1.53333333e+01 0.00000000e+00)	(1.35286701e+00 2.19933193e+00 1.89497223e-19)	(4.61497648e+01 2.34605128e+01 0.00000000e+00)
0.65            	p               	-2.73298100e+00	(5.66148568e+01 1.19325506e+01 0.00000000e+00)	3.47866657e+00	(5.77350269e-01 7.00000000e+00 0.00000000e+00)
0.65            	U               	(3.16454165e-01 -2.30066910e-01 0.00000000e+00)	(6.66666667e-01 1.53333333e+01 0.00000000e+00)	(1.35513639e+00 2.19577370e+00 2.27550487e-19)	(4.61497648e+01 2.34605128e+01 0.00000000e+00)
0.7             	p               	-2.86515966e+00	(5.66148568e+01 1.19325506e+01 0.00000000e+00)	3.35484984e+00	(5.77350269e-01 7.00000000e+00 0.00000000e+00)
0.7             	U               	(3.19686596e-01 -2.27503257e-01 0.00000000e+00)	(6.66666667e-01 1.53333333e+01 0.00000000e+00)	(1.35731517e+00 2.19227674e+00 2.67057837e-19)	(4.61497648e+01 2.34605128e+01 0.00000000e+00)
0.75            	p               	-2.99132677e+00	(5.66148568e+01 1.19325506e+01 0.00000000e+00)	3.22016941e+00	(5.77350269e-01 7.00000000e+00 0.00000000e+00)
0.75            	U               	(3.22662501e-01 -2.24757612e-01 0.00000000e+00)	(6.66666667e-01 1.53333333e+01 0.00000000e+00)	(1.35936380e+00 2.18884302e+00 3.09282064e-19)	(4.61497648e+01 2.34605128e+01 0.00000000e+00)
0.8             	p               	-3.11338755e+00	(5.66148568e+01 1.19325506e+01 0.00000000e+00)	3.07716568e+00	(5.77350269e-01 7.00000000e+00 0.00000000e+00)
0.8             	U               	(3.25404281e-01 -2.21853699e-01 0.00000000e+00)	(6.66666667e-01 1.53333333e+01 0.00000000e+00)	(1.36125367e+00 2.18547202e+00 3.55360542e-19)	(4.61497648e+01 2.34605128e+01 0.00000000e+00)
0.85            	p               	-3.22664776e+00	(5.66148568e+01 1.19325506e+01 0.00000000e+00)	2.93089455e+00	(5.77350269e-01 7.00000000e+00 0.00000000e+00)
0.85            	U               	(3.27931191e-01 -2.18811827e-01 0.00000000e+00)	(6.66666667e-01 1.53333333e+01 0.00000000e+00)	(1.36296126e+00 2.18215419e+00 4.02602211e-19)	(4.61497648e+01 2.34605128e+01 0.00000000e+00)
0.9             	p               	-3.33661843e+00	(5.66148568e+01 1.19325506e+01 0.00000000e+00)	2.78737957e+00	(1.15470054e+00 8.00000000e+00 0.00000000e+00)
0.9             	U               	(3.30288932e-01 -2.15644570e-01 0.00000000e+00)	(6.66666667e-01 1.53333333e+01 0.00000000e+00)	(1.36447548e+00 2.17888608e+00 4.50490582e-19)	(4.61497648e+01 2.34605128e+01 0.00000000e+00)
0.95            	p               	-3.43793934e+00	(5.66148568e+01 1.19325506e+01 0.00000000e+00)	2.65707127e+00	(4.64018104e+00 5.46437575e+00 0.00000000e+00)
0.95            	U               	(3.32595181e-01 -2.12349803e-01 0.00000000e+00)	(6.66666667e-01 1.53333333e+01 0.00000000e+00)	(1.36578700e+00 2.17565870e+00 4.97819418e-19)	(4.61497648e+01 2.34605128e+01 0.00000000e+00)
1               	p               	-3.53166209e+00	(5.66148568e+01 1.19325506e+01 0.00000000e+00)	2.54409272e+00	(4.64018104e+00 5.46437575e+00 0.00000000e+00)
1               	U               	(3.34853953e-01 -2.08946354e-01 0.00000000e+00)	(6.66666667e-01 1.53333333e+01 0.00000000e+00)	(1.36688882e+00 2.17246237e+00 5.42543246e-19)	(4.61497648e+01 2.34605128e+01 0.00000000e+00)
1.05            	p               	-3.61806549e+00	(5.66148568e+01 1.19325506e+01 0.00000000e+00)	2.43042327e+00	(4.64018104e+00 5.46437575e+00 0.00000000e+00)
1.05            	U               	(3.37068935e-01 -2.05451940e-01 0.00000000e+00)	(6.66666667e-01 1.53333333e+01 0.00000000e+00)	(1.36777521e+00 2.16928234e+00 5.86087138e-19)	(4.61497648e+01 2.34605128e+01 0.00000000e+00)
1.1             	p               	-3.69485387e+00	(5.66148568e+01 1.19325506e+01 0.00000000e+00)	2.31941448e+00	(4.64018104e+00 1.06549725e+01 0.00000000e+00)
1.1             	U               	(3.39243065e-01 -2.01882887e-01 0.00000000e+00)	(6.66666667e-01 1.53333333e+01 0.00000000e+00)	(1.36844367e+00 2.16610273e+00 6.28086547e-19)	(4.61497648e+01 2.34605128e+01 0.00000000e+00)
1.15            	p               	-3.78963835e+00	(5.66148568e+01 1.19325506e+01 0.00000000e+00)	2.23526973e+00	(4.64018104e+00 1.06549725e+01 0.00000000e+00)
1.15            	U               	(3.41378953e-01 -1.98254484e-01 0.00000000e+00)	(6.66666667e-01 1.53333333e+01 0.00000000e+00)	(1.36892162e+00 2.16295391e+00 6.65217043e-19)	(4.61497648e+01 2.34605128e+01 0.00000000e+00)
1.2             	p               	-3.86648477e+00	(5.66148568e+01 1.19325506e+01 0.00000000e+00)	2.14015713e+00	(4.64018104e+00 1.06549725e+01 0.00000000e+00)
1.2             	U               	(3.43478755e-01 -1.94580889e-01 0.00000000e+00)	(6.66666667e-01 1.53333333e+01 0.00000000e+00)	(1.36919868e+00 2.15980273e+00 7.03350759e-19)	(4.61497648e+01 2.34605128e+01 0.00000000e+00)
1.25            	p               	-3.93093628e+00	(5.66148568e+01 1.19325506e+01 0.00000000e+00)	2.04528921e+00	(4.64018104e+00 1.06549725e+01 0.00000000e+00)
1.25            	U               	(3.45543325e-01 -1.90874267e-01 0.00000000e+00)	(6.66666667e-01 1.53333333e+01 0.00000000e+00)	(1.36928008e+00 2.15664060e+00 7.37770699e-19)	(4.61497648e+01 2.34605128e+01 0.00000000e+00)
1.3             	p               	-3.99634305e+00	(5.66148568e+01 1.19325506e+01 0.00000000e+00)	1.95767796e+00	(4.64018104e+00 1.06549725e+01 0.00000000e+00)
1.3             	U               	(3.47573739e-01 -1.87145978e-01 0.00000000e+00)	(6.66666667e-01 1.53333333e+01 0.00000000e+00)	(1.36918471e+00 2.15348082e+00 7.69489063e-19)	(4.61497648e+01 2.34605128e+01 0.00000000e+00)
1.35            	p               	-4.05975478e+00	(5.66148568e+01 1.19325506e+01 0.00000000e+00)	1.87236830e+00	(4.64018104e+00 1.06549725e+01 0.00000000e+00)
1.35            	U               	(3.49571220e-01 -1.83406645e-01 0.00000000e+00)	(6.66666667e-01 1.53333333e+01 0.00000000e+00)	(1.36892258e+00 2.15032236e+00 8.00343882e-19)	(4.61497648e+01 2.34605128e+01 0.00000000e+00)
1.4             	p               	-4.11842239e+00	(5.66148568e+01 1.19325506e+01 0.00000000e+00)	1.78914790e+00	(4.64018104e+00 1.06549725e+01 0.00000000e+00)
1.4             	U               	(3.51536866e-01 -1.79666009e-01 0.00000000e+00)	(6.66666667e-01 1.53333333e+01 0.00000000e+00)	(1.36850272e+00 2.14716374e+00 8.29164181e-19)	(4.61497648e+01 2.34605128e+01 0.00000000e+00)
1.45            	p               	-4.17187162e+00	(5.66148568e+01 1.19325506e+01 0.00000000e+00)	1.71053881e+00	(4.64018104e+00 1.06549725e+01 0.00000000e+00)
1.45            	U               	(3.53471700e-01 -1.75933003e-01 0.00000000e+00)	(6.66666667e-01 1.53333333e+01 0.00000000e+00)	(1.36793505e+00 2.14400587e+00 8.54996772e-19)	(4.61497648e+01 2.34605128e+01 0.00000000e+00)
1.5             	p               	-4.22086827e+00	(5.66148568e+01 1.19325506e+01 0.00000000e+00)	1.63533449e+00	(4.64018104e+00 1.06549725e+01 0.00000000e+00)
1.5             	U               	(3.55376617e-01 -1.72215730e-01 0.00000000e+00)	(6.66666667e-01 1.53333333e+01 0.00000000e+00)	(1.36722451e+00 2.14084355e+00 8.78588894e-19)	(4.61497648e+01 2.34605128e+01 0.00000000e+00)
1.55            	p               	-4.26774878e+00	(5.66148568e+01 1.19325506e+01 0.00000000e+00)	1.58211777e+00	(3.96015518e+01 1.46681195e+00 0.00000000e+00)
1.55            	U               	(3.57252480e-01 -1.68521567e-01 0.00000000e+00)	(6.66666667e-01 1.53333333e+01 0.00000000e+00)	(1.36637691e+00 2.13767355e+00 8.99594478e-19)	(4.61497648e+01 2.34605128e+01 0.00000000e+00)
1.6             	p               	-4.31532777e+00	(5.66148568e+01 1.19325506e+01 0.00000000e+00)	1.53439524e+00	(3.96015518e+01 1.46681195e+00 0.00000000e+00)
1.6             	U               	(3.59100052e-01 -1.64857118e-01 0.00000000e+00)	(6.66666667e-01 1.53333333e+01 0.00000000e+00)	(1.36539971e+00 2.13449564e+00 9.19776078e-19)	(4.61497648e+01 2.34605128e+01 0.00000000e+00)
1.65            	p               	-4.36152274e+00	(5.66148568e+01 1.19325506e+01 0.00000000e+00)	1.48980548e+00	(3.96015518e+01 1.46681195e+00 0.00000000e+00)
1.65            	U               	(3.60920117e-01 -1.61228349e-01 0.00000000e+00)	(6.66666667e-01 1.53333333e+01 0.00000000e+00)	(1.36429950e+00 2.13130912e+00 9.37858225e-19)	(4.61497648e+01 2.34605128e+01 0.00000000e+00)
1.7             	p               	-4.40496293e+00	(5.66148568e+01 1.19325506e+01 0.00000000e+00)	1.44900412e+00	(3.96015518e+01 1.46681195e+00 0.00000000e+00)
1.7             	U               	(3.62713442e-01 -1.57640581e-01 0.00000000e+00)	(6.66666667e-01 1.53333333e+01 0.00000000e+00)	(1.36308228e+00 2.12811313e+00 9.53550264e-19)	(4.61497648e+01 2.34605128e+01 0.00000000e+00)
1.75            	p               	-4.44591037e+00	(5.66148568e+01 1.19325506e+01 0.00000000e+00)	1.41086505e+00	(3.96015518e+01 1.46681195e+00 0.00000000e+00)
1.75            	U               	(3.64480692e-01 -1.54098447e-01 0.00000000e+00)	(6.66666667e-01 1.53333333e+01 0.00000000e+00)	(1.36175259e+00 2.12490523e+00 9.67531992e-19)	(4.61497648e+01 2.34605128e+01 0.00000000e+00)
1.8             	p               	-4.49320037e+00	(5.66148568e+01 1.19325506e+01 0.00000000e+00)	1.37880554e+00	(3.96015518e+01 1.46681195e+00 0.00000000e+00)
1.8             	U               	(3.66222376e-01 -1.50605855e-01 0.00000000e+00)	(6.66666667e-01 1.53333333e+01 0.00000000e+00)	(1.36032505e+00 2.12169961e+00 9.78406820e-19)	(4.61497648e+01 2.34605128e+01 0.00000000e+00)
1.85            	p               	-4.54279734e+00	(5.66148568e+01 1.19325506e+01 0.00000000e+00)	1.34977526e+00	(3.96015518e+01 1.46681195e+00 0.00000000e+00)
1.85            	U               	(3.67938825e-01 -1.47165983e-01 0.00000000e+00)	(6.66666667e-01 1.53333333e+01 0.00000000e+00)	(1.35880598e+00 2.11849774e+00 9.87893783e-19)	(4.61497648e+01 2.34605128e+01 0.00000000e+00)
1.9             	p               	-4.58338720e+00	(5.66148568e+01 1.19325506e+01 0.00000000e+00)	1.32142220e+00	(3.96015518e+01 1.46681195e+00 0.00000000e+00)
1.9             	U               	(3.69630313e-01 -1.43781423e-01 0.00000000e+00)	(6.66666667e-01 1.53333333e+01 0.00000000e+00)	(1.35719379e+00 2.11528893e+00 9.97219185e-19)	(4.61497648e+01 2.34605128e+01 0.00000000e+00)
1.95            	p               	-4.62308291e+00	(5.66148568e+01 1.19325506e+01 0.00000000e+00)	1.29572739e+00	(3.96015518e+01 1.46681195e+00 0.00000000e+00)
1.95            	U               	(3.71297053e-01 -1.40454221e-01 0.00000000e+00)	(6.66666667e-01 1.53333333e+01 0.00000000e+00)	(1.35549163e+00 2.11207363e+00 1.00485846e-18)	(4.61497648e+01 2.34605128e+01 0.00000000e+00)
2               	p               	-4.65996382e+00	(5.66148568e+01 1.19325506e+01 0.00000000e+00)	1.27341859e+00	(3.96015518e+01 1.46681195e+00 0.00000000e+00)
2               	U               	(3.72939211e-01 -1.37185943e-01 0.00000000e+00)	(6.66666667e-01 1.53333333e+01 0.00000000e+00)	(1.35370294e+00 2.10885332e+00 1.01066781e-18)	(4.61497648e+01 2.34605128e+01 0.00000000e+00)
2.05            	p               	-4.69695526e+00	(5.66148568e+01 1.19325506e+01 0.00000000e+00)	1.26034365e+00	(5.28725700e+01 -4.17489767e+00 0.00000000e+00)
2.05            	U               	(3.74556814e-01 -1.33977636e-01 0.00000000e+00)	(6.66666667e-01 1.53333333e+01 0.00000000e+00)	(1.35182957e+00 2.10562578e+00 1.01604855e-18)	(4.61497648e+01 2.34605128e+01 0.00000000e+00)
2.1             	p               	-4.74280670e+00	(5.66148568e+01 1.19325506e+01 0.00000000e+00)	1.27322838e+00	(5.28725700e+01 -4.17489767e+00 0.00000000e+00)
2.1             	U               	(3.76149909e-01 -1.30830027e-01 0.00000000e+00)	(6.66666667e-01 1.53333333e+01 0.00000000e+00)	(1.34988627e+00 2.10241094e+00 1.01799369e-18)	(4.61497648e+01 2.34605128e+01 0.00000000e+00)
2.15            	p               	-4.78513787e+00	(5.66148568e+01 1.19325506e+01 0.00000000e+00)	1.28637615e+00	(5.28725700e+01 -4.17489767e+00 0.00000000e+00)
2.15            	U               	(3.77718447e-01 -1.27743463e-01 0.00000000e+00)	(6.66666667e-01 1.53333333e+01 0.00000000e+00)	(1.34787173e+00 2.09920068e+00 1.01956817e-18)	(4.61497648e+01 2.34605128e+01 0.00000000e+00)
2.2             	p               	-4.82742601e+00	(5.66148568e+01 1.19325506e+01 0.00000000e+00)	1.30117936e+00	(5.28725700e+01 -4.17489767e+00 0.00000000e+00)
2.2             	U               	(3.79262376e-01 -1.24718046e-01 0.00000000e+00)	(6.66666667e-01 1.53333333e+01 0.00000000e+00)	(1.34579356e+00 2.09600207e+00 1.01924185e-18)	(4.61497648e+01 2.34605128e+01 0.00000000e+00)
2.25            	p               	-4.86463974e+00	(5.66148568e+01 1.19325506e+01 0.00000000e+00)	1.31765537e+00	(5.28725700e+01 -4.17489767e+00 0.00000000e+00)
2.25            	U               	(3.80781672e-01 -1.21753700e-01 0.00000000e+00)	(6.66666667e-01 1.53333333e+01 0.00000000e+00)	(1.34364624e+00 2.09279921e+00 1.01993488e-18)	(4.61497648e+01 2.34605128e+01 0.00000000e+00)
2.3             	p               	-4.90040670e+00	(5.66148568e+01 1.19325506e+01 0.00000000e+00)	1.33420851e+00	(5.28725700e+01 -4.17489767e+00 0.00000000e+00)
2.3             	U               	(3.82276313e-01 -1.18850196e-01 0.00000000e+00)	(6.66666667e-01 1.53333333e+01 0.00000000e+00)	(1.34142978e+00 2.08958547e+00 1.02062644e-18)	(4.61497648e+01 2.34605128e+01 0.00000000e+00)
2.35            	p               	-4.94253671e+00	(5.66148568e+01 1.19325506e+01 0.00000000e+00)	1.34970430e+00	(5.28725700e+01 -4.17489767e+00 0.00000000e+00)
2.35            	U               	(3.83746270e-01 -1.16007161e-01 0.00000000e+00)	(6.66666667e-01 1.53333333e+01 0.00000000e+00)	(1.33915845e+00 2.08637709e+00 1.01891327e-18)	(4.61497648e+01 2.34605128e+01 0.00000000e+00)
2.4             	p               	-4.98994220e+00	(5.66148568e+01 1.19325506e+01 0.00000000e+00)	1.36468518e+00	(5.28725700e+01 -4.17489767e+00 0.00000000e+00)
2.4             	U               	(3.85191631e-01 -1.13224226e-01 0.00000000e+00)	(6.66666667e-01 1.53333333e+01 0.00000000e+00)	(1.33684500e+00 2.08318753e+00 1.01481290e-18)	(4.61497648e+01 2.34605128e+01 0.00000000e+00)
2.45            	p               	-5.03386601e+00	(5.66148568e+01 1.19325506e+01 0.00000000e+00)	1.38053408e+00	(5.28725700e+01 -4.17489767e+00 0.00000000e+00)
2.45            	U               	(3.86612607e-01 -1.10501045e-01 0.00000000e+00)	(6.66666667e-01 1.53333333e+01 0.00000000e+00)	(1.33448483e+00 2.08000149e+00 1.01119180e-18)	(4.61497648e+01 2.34605128e+01 0.00000000e+00)
2.5             	p               	-5.07328539e+00	(5.66148568e+01 1.19325506e+01 0.00000000e+00)	1.39689854e+00	(5.28725700e+01 -4.17489767e+00 0.00000000e+00)
2.5             	U               	(3.88009724e-01 -1.07837505e-01 0.00000000e+00)	(6.66666667e-01 1.53333333e+01 0.00000000e+00)	(1.33207119e+00 2.07679998e+00 1.00911022e-18)	(4.61497648e+01 2.34605128e+01 0.00000000e+00)
2.55            	p               	-5.11198296e+00	(5.66148568e+01 1.19325506e+01 0.00000000e+00)	1.41377884e+00	(5.28725700e+01 -4.17489767e+00 0.00000000e+00)
2.55            	U               	(3.89384411e-01 -1.05234300e-01 0.00000000e+00)	(6.66666667e-01 1.53333333e+01 0.00000000e+00)	(1.32960686e+00 2.07357966e+00 1.00644367e-18)	(4.61497648e+01 2.34605128e+01 0.00000000e+00)
2.6             	p               	-5.15190233e+00	(5.66148568e+01 1.19325506e+01 0.00000000e+00)	1.42970160e+00	(5.28725700e+01 -4.17489767e+00 0.00000000e+00)
2.6             	U               	(3.90743067e-01 -1.02696943e-01 0.00000000e+00)	(6.66666667e-01 1.53333333e+01 0.00000000e+00)	(1.32709454e+00 2.07033706e+00 1.00392818e-18)	(4.61497648e+01 2.34605128e+01 0.00000000e+00)
2.65            	p               	-5.19211408e+00	(5.66148568e+01 1.19325506e+01 0.00000000e+00)	1.44563204e+00	(5.28725700e+01 -4.17489767e+00 0.00000000e+00)
2.65            	U               	(3.92072027e-01 -1.00211136e-01 0.00000000e+00)	(6.66666667e-01 1.53333333e+01 0.00000000e+00)	(1.32453714e+00 2.06706911e+00 1.00103307e-18)	(4.61497648e+01 2.34605128e+01 0.00000000e+00)
2.7             	p               	-5.23320397e+00	(5.66148568e+01 1.19325506e+01 0.00000000e+00)	1.46091556e+00	(5.28725700e+01 -4.17489767e+00 0.00000000e+00)
2.7             	U               	(3.93362127e-01 -9.77667469e-02 0.00000000e+00)	(6.66666667e-01 1.53333333e+01 0.00000000e+00)	(1.32193730e+00 2.06377237e+00 9.98400991e-19)	(4.61497648e+01 2.34605128e+01 0.00000000e+00)
2.75            	p               	-5.27419635e+00	(5.66148568e+01 1.19325506e+01 0.00000000e+00)	1.47604622e+00	(5.28725700e+01 -4.17489767e+00 0.00000000e+00)
2.75            	U               	(3.94617525e-01 -9.53672121e-02 0.00000000e+00)	(6.66666667e-01 1.53333333e+01 0.00000000e+00)	(1.31929811e+00 2.06044427e+00 9.95811540e-19)	(4.61497648e+01 2.34605128e+01 0.00000000e+00)
2.8             	p               	-5.31631300e+00	(5.66148568e+01 1.19325506e+01 0.00000000e+00)	1.49051084e+00	(5.28725700e+01 -4.17489767e+00 0.00000000e+00)
2.8             	U               	(3.95839449e-01 -9.30132074e-02 0.00000000e+00)	(6.66666667e-01 1.53333333e+01 0.00000000e+00)	(1.31662309e+00 2.05708316e+00 9.93259800e-19)	(4.61497648e+01 2.34605128e+01 0.00000000e+00)
2.85            	p               	-5.35844481e+00	(5.66148568e+01 1.19325506e+01 0.00000000e+00)	1.50444381e+00	(5.28725700e+01 -4.17489767e+00 0.00000000e+00)
2.85            	U               	(3.97029108e-01 -9.07052575e-02 0.00000000e+00)	(6.66666667e-01 1.53333333e+01 0.00000000e+00)	(1.31391717e+00 2.05368053e+00 9.90710461e-19)	(4.61497648e+01 2.34605128e+01 0.00000000e+00)
2.9             	p               	-5.40099316e+00	(5.66148568e+01 1.19325506e+01 0.00000000e+00)	1.51756887e+00	(5.28725700e+01 -4.17489767e+00 0.00000000e+00)
2.9             	U               	(3.98187660e-01 -8.84437326e-02 0.00000000e+00)	(6.66666667e-01 1.53333333e+01 0.00000000e+00)	(1.31118423e+00 2.05023625e+00 9.88278049e-19)	(4.61497648e+01 2.34605128e+01 0.00000000e+00)
2.95            	p               	-5.44383440e+00	(5.66148568e+01 1.19325506e+01 0.00000000e+00)	1.52998686e+00	(5.28725700e+01 -4.17489767e+00 0.00000000e+00)
2.95            	U               	(3.99316236e-01 -8.62288891e-02 0.00000000e+00)	(6.66666667e-01 1.53333333e+01 0.00000000e+00)	(1.30842675e+00 2.04674935e+00 9.85966452e-19)	(4.61497648e+01 2.34605128e+01 0.00000000e+00)
3               	p               	-5.48697931e+00	(5.66148568e+01 1.19325506e+01 0.00000000e+00)	1.54156456e+00	(5.28725700e+01 -4.17489767e+00 0.00000000e+00)
3               	U               	(4.00415880e-01 -8.40608289e-02 0.00000000e+00)	(6.66666667e-01 1.53333333e+01 0.00000000e+00)	(1.30564731e+00 2.04321910e+00 9.83810696e-19)	(4.61497648e+01 2.34605128e+01 0.00000000e+00)
3.05            	p               	-5.53013444e+00	(5.66148568e+01 1.19325506e+01 0.00000000e+00)	1.55281330e+00	(5.28725700e+01 -4.17489767e+00 0.00000000e+00)
3.05            	U               	(4.01487558e-01 -8.19395163e-02 0.00000000e+00)	(6.66666667e-01 1.53333333e+01 0.00000000e+00)	(1.30284872e+00 2.03964528e+00 9.81765427e-19)	(4.61497648e+01 2.34605128e+01 0.00000000e+00)
3.1             	p               	-5.57315479e+00	(5.66148568e+01 1.19325506e+01 0.00000000e+00)	1.56385785e+00	(5.28725700e+01 -4.17489767e+00 0.00000000e+00)
3.1             	U               	(4.02532138e-01 -7.98647676e-02 0.00000000e+00)	(6.66666667e-01 1.53333333e+01 0.00000000e+00)	(1.30003354e+00 2.03602759e+00 9.79778627e-19)	(4.61497648e+01 2.34605128e+01 0.00000000e+00)
3.15            	p               	-5.61617802e+00	(5.66148568e+01 1.19325506e+01 0.00000000e+00)	1.57421051e+00	(5.28725700e+01 -4.17489767e+00 0.00000000e+00)
3.15            	U               	(4.03550390e-01 -7.78362641e-02 0.00000000e+00)	(6.66666667e-01 1.53333333e+01 0.00000000e+00)	(1.29720410e+00 2.03236559e+00 9.77933361e-19)	(4.61497648e+01 2.34605128e+01 0.00000000e+00)
3.2             	p               	-5.65885113e+00	(5.66148568e+01 1.19325506e+01 0.00000000e+00)	1.58433896e+00	(5.28725700e+01 -4.17489767e+00 0.00000000e+00)
3.2             	U               	(4.04543084e-01 -7.58536522e-02 0.00000000e+00)	(6.66666667e-01 1.53333333e+01 0.00000000e+00)	(1.29436283e+00 2.02865932e+00 9.76121232e-19)	(4.61497648e+01 2.34605128e+01 0.00000000e+00)
3.25            	p               	-5.70124195e+00	(5.66148568e+01 1.19325506e+01 0.00000000e+00)	1.59404107e+00	(5.28725700e+01 -4.17489767e+00 0.00000000e+00)
3.25            	U               	(4.05510900e-01 -7.39164696e-02 0.00000000e+00)	(6.66666667e-01 1.53333333e+01 0.00000000e+00)	(1.29151242e+00 2.02490956e+00 9.74518102e-19)	(4.61497648e+01 2.34605128e+01 0.00000000e+00)
3.3             	p               	-5.74280478e+00	(5.66148568e+01 1.19325506e+01 0.00000000e+00)	1.60396546e+00	(5.28725700e+01 -4.17489767e+00 0.00000000e+00)
3.3             	U               	(4.06454415e-01 -7.20241319e-02 0.00000000e+00)	(6.66666667e-01 1.53333333e+01 0.00000000e+00)	(1.28865574e+00 2.02111781e+00 9.72926835e-19)	(4.61497648e+01 2.34605128e+01 0.00000000e+00)
3.35            	p               	-5.78290724e+00	(5.66148568e+01 1.19325506e+01 0.00000000e+00)	1.61496366e+00	(5.28725700e+01 -4.17489767e+00 0.00000000e+00)
3.35            	U               	(4.07374203e-01 -7.01760368e-02 0.00000000e+00)	(6.66666667e-01 1.53333333e+01 0.00000000e+00)	(1.28579426e+00 2.01728347e+00 9.71464655e-19)	(4.61497648e+01 2.34605128e+01 0.00000000e+00)
3.4             	p               	-5.82200886e+00	(5.66148568e+01 1.19325506e+01 0.00000000e+00)	1.62645684e+00	(5.28725700e+01 -4.17489767e+00 0.00000000e+00)
3.4             	U               	(4.08270808e-01 -6.83715385e-02 0.00000000e+00)	(6.66666667e-01 1.53333333e+01 0.00000000e+00)	(1.28292827e+00 2.01340426e+00 9.70489976e-19)	(4.61497648e+01 2.34605128e+01 0.00000000e+00)
3.45            	p               	-5.86924482e+00	(5.66148568e+01 1.19325506e+01 0.00000000e+00)	1.62294519e+00	(5.28725700e+01 -4.17489767e+00 0.00000000e+00)
3.45            	U               	(4.09144746e-01 -6.66099584e-02 0.00000000e+00)	(6.66666667e-01 1.53333333e+01 0.00000000e+00)	(1.28006961e+00 2.00949674e+00 9.68001300e-19)	(4.61497648e+01 2.34605128e+01 0.00000000e+00)
3.5             	p               	-5.91168380e+00	(5.66148568e+01 1.19325506e+01 0.00000000e+00)	1.61957091e+00	(5.28725700e+01 -4.17489767e+00 0.00000000e+00)
3.5             	U               	(4.09996509e-01 -6.48905915e-02 0.00000000e+00)	(6.66666667e-01 1.53333333e+01 0.00000000e+00)	(1.27721790e+00 2.00555767e+00 9.66103987e-19)	(4.61497648e+01 2.34605128e+01 0.00000000e+00)
3.55            	p               	-5.95618217e+00	(5.66148568e+01 1.19325506e+01 0.00000000e+00)	1.62601682e+00	(5.28725700e+01 -4.17489767e+00 0.00000000e+00)
3.55            	U               	(4.10826578e-01 -6.32127184e-02 0.00000000e+00)	(6.66666667e-01 1.53333333e+01 0.00000000e+00)	(1.27438955e+00 2.00161207e+00 9.61722362e-19)	(4.61497648e+01 2.34605128e+01 0.00000000e+00)
3.6             	p               	-6.00020136e+00	(5.66148568e+01 1.19325506e+01 0.00000000e+00)	1.63304522e+00	(5.28725700e+01 -4.17489767e+00 0.00000000e+00)
3.6             	U               	(4.11635420e-01 -6.15756076e-02 0.00000000e+00)	(6.66666667e-01 1.53333333e+01 0.00000000e+00)	(1.27158652e+00 1.99766160e+00 9.57437198e-19)	(4.61497648e+01 2.34605128e+01 0.00000000e+00)
3.65            	p               	-6.03551922e+00	(5.66148568e+01 1.19325506e+01 0.00000000e+00)	1.64129719e+00	(5.28725700e+01 -4.17489767e+00 0.00000000e+00)
3.65            	U               	(4.12423479e-01 -5.99785092e-02 0.00000000e+00)	(6.66666667e-01 1.53333333e+01 0.00000000e+00)	(1.26879670e+00 1.99368490e+00 9.55748478e-19)	(4.61497648e+01 2.34605128e+01 0.00000000e+00)
3.7             	p               	-6.07149626e+00	(5.66148568e+01 1.19325506e+01 0.00000000e+00)	1.64907433e+00	(5.28725700e+01 -4.17489767e+00 0.00000000e+00)
3.7             	U               	(4.13191189e-01 -5.84206680e-02 0.00000000e+00)	(6.66666667e-01 1.53333333e+01 0.00000000e+00)	(1.26602223e+00 1.98968424e+00 9.54231419e-19)	(4.61497648e+01 2.34605128e+01 0.00000000e+00)
3.75            	p               	-6.10633989e+00	(5.66148568e+01 1.19325506e+01 0.00000000e+00)	1.65696780e+00	(5.28725700e+01 -4.17489767e+00 0.00000000e+00)
3.75            	U               	(4.13938990e-01 -5.69013383e-02 0.00000000e+00)	(6.66666667e-01 1.53333333e+01 0.00000000e+00)	(1.26326563e+00 1.98566283e+00 9.52538295e-19)	(4.61497648e+01 2.34605128e+01 0.00000000e+00)
3.8             	p               	-6.14088563e+00	(5.66148568e+01 1.19325506e+01 0.00000000e+00)	1.66447785e+00	(5.28725700e+01 -4.17489767e+00 0.00000000e+00)
3.8             	U               	(4.14667308e-01 -5.54197694e-02 0.00000000e+00)	(6.66666667e-01 1.53333333e+01 0.00000000e+00)	(1.26052891e+00 1.98162336e+00 9.50884215e-19)	(4.61497648e+01 2.34605128e+01 0.00000000e+00)
3.85            	p               	-6.17587333e+00	(5.66148568e+01 1.19325506e+01 0.00000000e+00)	1.67159083e+00	(5.28725700e+01 -4.17489767e+00 0.00000000e+00)
3.85            	U               	(4.15376627e-01 -5.39752763e-02 0.00000000e+00)	(6.66666667e-01 1.53333333e+01 0.00000000e+00)	(1.25781395e+00 1.97756870e+00 9.49101727e-19)	(4.61497648e+01 2.34605128e+01 0.00000000e+00)
3.9             	p               	-6.20906896e+00	(5.66148568e+01 1.19325506e+01 0.00000000e+00)	1.67938076e+00	(5.28725700e+01 -4.17489767e+00 0.00000000e+00)
3.9             	U               	(4.16067430e-01 -5.25671912e-02 0.00000000e+00)	(6.66666667e-01 1.53333333e+01 0.00000000e+00)	(1.25512362e+00 1.97350356e+00 9.47256491e-19)	(4.61497648e+01 2.34605128e+01 0.00000000e+00)