/*--------------------------------*- C++ -*----------------------------------*\
  =========                 |
  \\      /  F ield         | OpenFOAM: The Open Source CFD Toolbox
   \\    /   O peration     | Website:  https://openfoam.org
    \\  /    A nd           | Version:  7
     \\/     M anipulation  |
\*---------------------------------------------------------------------------*/
FoamFile
{
    version     2.0;
    format      ascii;
    class       volScalarField;
    location    "4";
    object      gradTx;
}
// * * * * * * * * * * * * * * * * * * * * * * * * * * * * * * * * * * * * * //

dimensions      [0 -1 0 1 0 0 0];

internalField   nonuniform List<scalar> 5(778.867 754.295 760.877 819.095 886.867);

boundaryField
{
    left
    {
        type            calculated;
        value           uniform 792.568;
    }
    right
    {
        type            calculated;
        value           uniform 913.873;
    }
    empty
    {
        type            empty;
    }
}


// ************************************************************************* //
