/*--------------------------------*- C++ -*----------------------------------*\
  =========                 |
  \\      /  F ield         | OpenFOAM: The Open Source CFD Toolbox
   \\    /   O peration     | Website:  https://openfoam.org
    \\  /    A nd           | Version:  7
     \\/     M anipulation  |
\*---------------------------------------------------------------------------*/
FoamFile
{
    version     2.0;
    format      ascii;
    class       volScalarField;
    location    "10";
    object      gradTx;
}
// * * * * * * * * * * * * * * * * * * * * * * * * * * * * * * * * * * * * * //

dimensions      [0 -1 0 1 0 0 0];

internalField   nonuniform List<scalar> 5(792.489 795.18 799.78 804.684 807.868);

boundaryField
{
    left
    {
        type            calculated;
        value           uniform 791.771;
    }
    right
    {
        type            calculated;
        value           uniform 808.774;
    }
    empty
    {
        type            empty;
    }
}


// ************************************************************************* //
