/*--------------------------------*- C++ -*----------------------------------*\
  =========                 |
  \\      /  F ield         | OpenFOAM: The Open Source CFD Toolbox
   \\    /   O peration     | Website:  https://openfoam.org
    \\  /    A nd           | Version:  7
     \\/     M anipulation  |
\*---------------------------------------------------------------------------*/
FoamFile
{
    version     2.0;
    format      ascii;
    class       volScalarField;
    location    "9";
    object      gradTx;
}
// * * * * * * * * * * * * * * * * * * * * * * * * * * * * * * * * * * * * * //

dimensions      [0 -1 0 1 0 0 0];

internalField   nonuniform List<scalar> 5(789.797 793.271 799.476 806.404 811.052);

boundaryField
{
    left
    {
        type            calculated;
        value           uniform 788.899;
    }
    right
    {
        type            calculated;
        value           uniform 812.4;
    }
    empty
    {
        type            empty;
    }
}


// ************************************************************************* //
