/*--------------------------------*- C++ -*----------------------------------*\
  =========                 |
  \\      /  F ield         | OpenFOAM: The Open Source CFD Toolbox
   \\    /   O peration     | Website:  https://openfoam.org
    \\  /    A nd           | Version:  7
     \\/     M anipulation  |
\*---------------------------------------------------------------------------*/
FoamFile
{
    version     2.0;
    format      ascii;
    class       volScalarField;
    location    "0";
    object      p;
}
// * * * * * * * * * * * * * * * * * * * * * * * * * * * * * * * * * * * * * //

dimensions      [1 -1 -2 0 0 0 0];

internalField   nonuniform List<scalar> 
5625
(
1.32496
0.882034
0.66981
0.583812
0.538916
0.512178
0.495485
0.484279
0.476125
0.469754
0.464445
0.459745
0.455354
0.451062
0.446716
0.442198
0.437416
0.432297
0.426779
0.420813
0.414358
0.40738
0.399855
0.391763
0.383096
0.37385
0.364032
0.353655
0.342743
0.331326
0.319444
0.307142
0.294472
0.281492
0.268266
0.254857
0.241335
0.227767
0.214224
0.200773
0.187482
0.174416
0.161636
0.149198
0.137153
0.125548
0.114419
0.103796
0.0937034
0.0841543
0.0751558
0.0667078
0.0588035
0.0514302
0.0445702
0.0382013
0.0322981
0.0268324
0.0217741
0.0170918
0.0127536
0.00872756
0.00498257
0.0014887
-0.0017819
-0.0048541
-0.0077485
-0.0104795
-0.0130526
-0.0154573
-0.0176457
-0.0195123
-0.0209974
-0.0219129
-0.0189995
0.948987
0.771453
0.652368
0.582826
0.536996
0.505889
0.484606
0.469509
0.45828
0.449517
0.442333
0.436143
0.43055
0.425275
0.420115
0.414919
0.409571
0.403978
0.398069
0.391784
0.385077
0.37791
0.370255
0.362092
0.35341
0.344205
0.334481
0.324249
0.313532
0.302355
0.290755
0.278772
0.266454
0.253854
0.241028
0.228037
0.214942
0.201806
0.188692
0.175665
0.162785
0.150112
0.137702
0.125607
0.113874
0.102545
0.0916551
0.0812324
0.0712988
0.0618687
0.0529502
0.0445447
0.0366477
0.0292494
0.0223354
0.0158873
0.00988322
0.00429908
-0.000891239
-0.00571504
-0.0102001
-0.0143743
-0.0182643
-0.0218958
-0.0252916
-0.0284715
-0.03145
-0.0342342
-0.0368217
-0.0391954
-0.0412991
-0.0430166
-0.0443755
-0.0456716
-0.0441929
0.713597
0.657849
0.598745
0.550647
0.513432
0.485439
0.464572
0.448797
0.436557
0.42675
0.418599
0.411554
0.405217
0.399302
0.393592
0.387925
0.382176
0.376244
0.370052
0.363535
0.356645
0.349341
0.341593
0.33338
0.324689
0.315515
0.30586
0.295736
0.285161
0.274159
0.262764
0.251013
0.238951
0.226626
0.214091
0.201403
0.188618
0.175796
0.162996
0.150278
0.137698
0.125313
0.113176
0.101334
0.0898325
0.0787105
0.0680013
0.0577321
0.0479237
0.0385906
0.0297412
0.0213779
0.0134977
0.00609267
-0.000849482
-0.00734475
-0.0134122
-0.0190733
-0.0243513
-0.0292707
-0.0338562
-0.0381327
-0.0421241
-0.045853
-0.0493394
-0.0526
-0.0556466
-0.0584844
-0.0611105
-0.0635122
-0.0656433
-0.067401
-0.0689005
-0.0707721
-0.0703161
0.578404
0.56489
0.535806
0.504984
0.478076
0.455858
0.437891
0.423399
0.411586
0.401766
0.393387
0.386021
0.379335
0.373074
0.367042
0.361082
0.355072
0.348914
0.342529
0.335854
0.328838
0.321439
0.313628
0.305383
0.296688
0.28754
0.277938
0.267893
0.257422
0.246547
0.235299
0.223714
0.211835
0.199707
0.18738
0.174908
0.162346
0.149749
0.137175
0.124679
0.112317
0.100141
0.0882017
0.0765461
0.0652164
0.05425
0.0436789
0.0335293
0.0238214
0.0145696
0.00578205
-0.0025382
-0.0103934
-0.0177905
-0.0247405
-0.0312577
-0.0373596
-0.0430658
-0.0483977
-0.0533776
-0.0580285
-0.0623731
-0.0664335
-0.0702305
-0.0737827
-0.0771056
-0.0802109
-0.0831047
-0.0857882
-0.0882575
-0.0904809
-0.092374
-0.0941178
-0.0965282
-0.0966913
0.487704
0.489602
0.476559
0.457905
0.439423
0.422655
0.408004
0.39543
0.384661
0.375349
0.36716
0.359797
0.353014
0.346604
0.340401
0.334268
0.328093
0.321785
0.315269
0.308484
0.301379
0.293916
0.286062
0.277797
0.269106
0.259981
0.250424
0.240442
0.230053
0.219276
0.208142
0.196685
0.184945
0.172968
0.1608
0.148494
0.136102
0.123679
0.111278
0.0989542
0.0867601
0.074747
0.0629637
0.0514552
0.0402628
0.0294227
0.0189658
0.00891757
-0.000702473
-0.00988052
-0.0186084
-0.0268831
-0.0347065
-0.0420851
-0.0490291
-0.0555518
-0.0616697
-0.0674009
-0.0727656
-0.0777847
-0.0824797
-0.0868719
-0.0909824
-0.0948305
-0.0984344
-0.10181
-0.104968
-0.107919
-0.110668
-0.11322
-0.115555
-0.117604
-0.119591
-0.122449
-0.123045
0.420067
0.427379
0.422925
0.412286
0.400061
0.387831
0.376304
0.365796
0.356344
0.347838
0.340114
0.332995
0.326314
0.319919
0.31368
0.307483
0.301233
0.294848
0.288261
0.281414
0.27426
0.266761
0.258887
0.250616
0.241933
0.232831
0.22331
0.213378
0.203048
0.192343
0.181289
0.169922
0.158279
0.146406
0.134349
0.122158
0.109885
0.0975829
0.085304
0.0731014
0.0610267
0.0491302
0.0374595
0.0260592
0.0149697
0.00422648
-0.00614011
-0.0161054
-0.0256506
-0.0347624
-0.0434332
-0.0516602
-0.0594456
-0.0667958
-0.0737206
-0.0802331
-0.0863491
-0.0920861
-0.0974634
-0.102501
-0.10722
-0.11164
-0.115781
-0.119664
-0.123305
-0.12672
-0.129925
-0.132928
-0.135742
-0.138378
-0.140825
-0.143023
-0.145228
-0.148441
-0.149354
0.365885
0.374606
0.374554
0.36897
0.361201
0.352545
0.343728
0.335188
0.32712
0.31956
0.312465
0.305752
0.299323
0.293075
0.286912
0.280749
0.274505
0.268112
0.26151
0.254648
0.247483
0.239978
0.232106
0.223843
0.215176
0.206096
0.196604
0.186705
0.176415
0.165752
0.154745
0.143428
0.131839
0.120023
0.108026
0.095899
0.0836924
0.0714582
0.0592486
0.0471155
0.0351103
0.0232827
0.0116805
0.00034823
-0.0106738
-0.0213503
-0.0316511
-0.0415524
-0.0510359
-0.0600892
-0.0687053
-0.0768826
-0.0846236
-0.0919352
-0.0988277
-0.105314
-0.111411
-0.117134
-0.122504
-0.12754
-0.132261
-0.136689
-0.140843
-0.144742
-0.148404
-0.151846
-0.155084
-0.158131
-0.161001
-0.163713
-0.166262
-0.168592
-0.170978
-0.174463
-0.17561
0.319828
0.328516
0.330673
0.328224
0.323542
0.317592
0.310994
0.304191
0.297436
0.290844
0.28445
0.278235
0.272153
0.266145
0.260147
0.254094
0.247924
0.241583
0.235018
0.228184
0.221043
0.213561
0.20571
0.19747
0.188825
0.179768
0.170297
0.160419
0.150145
0.139498
0.128504
0.117198
0.105619
0.093813
0.0818277
0.0697133
0.0575211
0.045303
0.0331108
0.0209962
0.00901081
-0.00279509
-0.0143729
-0.0256773
-0.036667
-0.0473063
-0.0575654
-0.0674206
-0.0768547
-0.0858563
-0.0944197
-0.102544
-0.110234
-0.117497
-0.124344
-0.130789
-0.136848
-0.142539
-0.147881
-0.152895
-0.157599
-0.162014
-0.166161
-0.170058
-0.173725
-0.177178
-0.180435
-0.183512
-0.186426
-0.189199
-0.19183
-0.194269
-0.196796
-0.200477
-0.201801
0.278971
0.287194
0.290442
0.289928
0.287354
0.283402
0.278559
0.273218
0.267637
0.261965
0.256277
0.250598
0.244918
0.239212
0.233439
0.227556
0.221516
0.215276
0.208792
0.202025
0.194941
0.187507
0.179699
0.171495
0.16288
0.153846
0.14439
0.134518
0.124242
0.113582
0.102567
0.0912317
0.0796189
0.0677754
0.0557514
0.0435987
0.0313695
0.0191157
0.00688925
-0.00525785
-0.0172734
-0.0291057
-0.040704
-0.052021
-0.0630137
-0.0736455
-0.0838861
-0.0937125
-0.103108
-0.112064
-0.120575
-0.128643
-0.136274
-0.143476
-0.150263
-0.15665
-0.162654
-0.168294
-0.173589
-0.17856
-0.183226
-0.18761
-0.19173
-0.195606
-0.199259
-0.202707
-0.205967
-0.209057
-0.211997
-0.214812
-0.217503
-0.220022
-0.222652
-0.226463
-0.227921
0.241703
0.249379
0.253139
0.253813
0.252667
0.250169
0.246684
0.242539
0.23797
0.233131
0.228117
0.222974
0.217721
0.212351
0.206845
0.201176
0.19531
0.189212
0.182847
0.176181
0.169183
0.161824
0.154077
0.145924
0.137347
0.128337
0.118891
0.109012
0.0987118
0.0880115
0.0769399
0.0655349
0.0538417
0.0419111
0.0297973
0.0175545
0.00523624
-0.00710513
-0.0194178
-0.0316494
-0.0437466
-0.055655
-0.0673206
-0.0786923
-0.0897245
-0.100379
-0.110624
-0.120438
-0.129805
-0.138719
-0.147177
-0.155182
-0.162744
-0.169874
-0.176586
-0.182898
-0.188828
-0.194396
-0.199623
-0.20453
-0.209139
-0.213469
-0.217543
-0.22138
-0.225
-0.228423
-0.231668
-0.234753
-0.2377
-0.240535
-0.243261
-0.245832
-0.248528
-0.252407
-0.253966
0.20709
0.214238
0.218197
0.219593
0.219407
0.217956
0.215507
0.212321
0.208604
0.204498
0.200102
0.195475
0.190649
0.185632
0.18042
0.174995
0.169336
0.163414
0.157201
0.150668
0.143784
0.136522
0.128858
0.12077
0.11224
0.103257
0.0938152
0.083917
0.0735727
0.0628026
0.0516374
0.0401179
0.0282945
0.0162241
0.0039667
-0.00841944
-0.0208792
-0.0333604
-0.0458118
-0.0581813
-0.0704139
-0.0824515
-0.0942345
-0.105706
-0.116816
-0.127523
-0.137795
-0.147611
-0.156959
-0.165832
-0.174233
-0.182168
-0.18965
-0.196692
-0.203312
-0.209529
-0.215365
-0.220841
-0.225979
-0.230802
-0.23533
-0.239587
-0.243594
-0.247371
-0.250938
-0.254317
-0.257527
-0.260588
-0.263521
-0.266353
-0.269089
-0.271683
-0.274411
-0.2783
-0.279935
0.174549
0.181205
0.18519
0.18701
0.187461
0.186757
0.185088
0.182662
0.179647
0.176173
0.172333
0.168187
0.163776
0.159116
0.15421
0.149052
0.143625
0.137907
0.131875
0.125501
0.118758
0.111619
0.104057
0.0960501
0.0875783
0.0786268
0.0691871
0.0592584
0.0488492
0.0379789
0.0266796
0.0149968
0.00298796
-0.00928015
-0.0217385
-0.034323
-0.0469772
-0.0596503
-0.0722934
-0.0848559
-0.0972814
-0.109506
-0.121462
-0.133083
-0.144311
-0.155102
-0.165424
-0.175256
-0.184589
-0.193421
-0.201758
-0.209612
-0.216998
-0.223935
-0.230443
-0.236546
-0.242266
-0.247627
-0.252653
-0.257369
-0.261796
-0.265957
-0.269875
-0.273571
-0.277067
-0.280382
-0.283536
-0.286551
-0.289448
-0.292253
-0.294974
-0.297565
-0.300291
-0.304139
-0.305827
0.143693
0.149887
0.153793
0.155843
0.156705
0.156525
0.155438
0.153605
0.151165
0.148229
0.144878
0.141175
0.137158
0.132849
0.128257
0.123379
0.118204
0.112715
0.106889
0.100701
0.0941252
0.0871325
0.0796958
0.0717889
0.0633888
0.0544765
0.0450388
0.0350705
0.0245764
0.0135738
0.00209593
-0.00980606
-0.0220638
-0.0345956
-0.0473175
-0.0601573
-0.0730581
-0.0859735
-0.0988606
-0.111673
-0.124354
-0.136833
-0.149025
-0.16085
-0.172242
-0.18315
-0.193543
-0.203401
-0.212721
-0.221507
-0.22977
-0.237527
-0.244799
-0.25161
-0.257984
-0.263948
-0.269528
-0.274751
-0.279642
-0.284226
-0.288528
-0.292572
-0.29638
-0.299974
-0.303376
-0.306606
-0.309685
-0.312633
-0.315471
-0.318227
-0.320907
-0.323469
-0.326163
-0.329921
-0.331643
0.11425
0.120001
0.123758
0.125905
0.127018
0.127198
0.126539
0.125165
0.12319
0.120706
0.117785
0.114483
0.110836
0.106869
0.102592
0.0980038
0.0930974
0.087857
0.0822619
0.0762871
0.0699051
0.0630859
0.0557991
0.0480147
0.0397045
0.0308435
0.0214121
0.0113985
0.000801121
-0.0103673
-0.0220738
-0.0342604
-0.0468437
-0.0597177
-0.0727731
-0.0859264
-0.099123
-0.112327
-0.125507
-0.138628
-0.151635
-0.164445
-0.17695
-0.189046
-0.200652
-0.211711
-0.222192
-0.232084
-0.241389
-0.250118
-0.25829
-0.265931
-0.273066
-0.279725
-0.285939
-0.291738
-0.297152
-0.302209
-0.306939
-0.311368
-0.315522
-0.319425
-0.3231
-0.326571
-0.329858
-0.332982
-0.335964
-0.338824
-0.341583
-0.344266
-0.346881
-0.34939
-0.352024
-0.355645
-0.357386
0.0860185
0.09133
0.0948889
0.0970399
0.098289
0.0987046
0.0983529
0.0973312
0.0957299
0.0936248
0.0910781
0.0881378
0.0848383
0.0812013
0.0772374
0.0729476
0.0683242
0.0633527
0.0580123
0.0522774
0.0461183
0.0395024
0.032395
0.0247607
0.0165644
0.00777345
-0.00164063
-0.0116994
-0.0224145
-0.0337827
-0.0457748
-0.058326
-0.0713322
-0.0846474
-0.0981171
-0.111641
-0.125175
-0.138703
-0.152219
-0.165706
-0.17912
-0.19236
-0.205276
-0.217721
-0.229597
-0.240841
-0.251427
-0.261352
-0.270631
-0.279286
-0.287345
-0.294842
-0.301811
-0.30829
-0.314313
-0.319917
-0.325135
-0.33
-0.334541
-0.338789
-0.342769
-0.346507
-0.350027
-0.353352
-0.356503
-0.359501
-0.362365
-0.365116
-0.367774
-0.370363
-0.37289
-0.375323
-0.377871
-0.381314
-0.383058
0.0588372
0.0637065
0.0670288
0.0691156
0.0704141
0.0709717
0.0708345
0.0700785
0.0687757
0.0669881
0.0647674
0.0621545
0.0591793
0.0558612
0.0522094
0.0482243
0.043898
0.0392154
0.0341548
0.0286888
0.022785
0.0164066
0.00951366
0.00206378
-0.00598632
-0.0146795
-0.0240557
-0.0341498
-0.0449892
-0.0565889
-0.0689316
-0.0819475
-0.0955074
-0.109398
-0.123379
-0.137326
-0.151222
-0.165091
-0.178967
-0.192873
-0.20679
-0.220596
-0.234051
-0.246946
-0.259157
-0.270617
-0.281313
-0.291263
-0.300497
-0.30905
-0.316965
-0.324284
-0.331052
-0.337314
-0.343112
-0.348486
-0.353476
-0.358117
-0.362441
-0.36648
-0.370261
-0.37381
-0.377152
-0.380309
-0.383303
-0.386153
-0.38888
-0.391502
-0.394039
-0.396513
-0.398931
-0.401266
-0.403703
-0.406928
-0.408664
0.0325735
0.0369912
0.0400454
0.0420161
0.0432988
0.0439268
0.0439315
0.0433725
0.0423071
0.0407854
0.0388497
0.0365341
0.0338637
0.0308546
0.027514
0.023841
0.0198265
0.0154541
0.0107004
0.00553557
-7.65727e-05
-0.0061776
-0.012814
-0.0200363
-0.0278977
-0.0364532
-0.0457575
-0.0558618
-0.0668169
-0.0786717
-0.0914383
-0.105048
-0.119349
-0.134012
-0.148621
-0.163029
-0.17728
-0.191467
-0.205696
-0.22006
-0.234599
-0.249166
-0.263348
-0.27682
-0.289437
-0.301137
-0.311935
-0.321886
-0.331041
-0.339454
-0.347181
-0.354279
-0.360803
-0.366806
-0.372338
-0.377445
-0.382171
-0.386555
-0.390631
-0.394432
-0.397987
-0.401323
-0.404463
-0.407431
-0.410247
-0.412931
-0.4155
-0.417974
-0.42037
-0.422709
-0.424999
-0.427217
-0.429521
-0.432493
-0.434208
0.0071117
0.0110651
0.0138244
0.0156388
0.0168557
0.0174984
0.0175882
0.0171717
0.0162945
0.0149963
0.0133116
0.0112681
0.00888618
0.0061785
0.00314996
-0.000202323
-0.00388888
-0.00792782
-0.0123447
-0.0171724
-0.0224513
-0.0282284
-0.0345576
-0.0414986
-0.0491161
-0.0574792
-0.066659
-0.0767253
-0.0877595
-0.0998733
-0.113143
-0.127513
-0.142839
-0.158588
-0.173969
-0.188837
-0.203376
-0.217798
-0.232315
-0.247136
-0.26244
-0.278082
-0.293273
-0.307487
-0.320588
-0.33253
-0.343395
-0.353298
-0.362324
-0.370543
-0.378028
-0.384851
-0.391079
-0.396773
-0.401993
-0.406791
-0.411214
-0.415304
-0.4191
-0.422634
-0.425936
-0.429033
-0.43195
-0.434707
-0.437325
-0.439823
-0.442217
-0.444525
-0.446763
-0.448949
-0.451092
-0.453175
-0.455326
-0.458011
-0.459697
-0.0176525
-0.0141775
-0.0117359
-0.0101095
-0.00899736
-0.0083832
-0.00825283
-0.00856988
-0.00929853
-0.0104072
-0.0118685
-0.0136604
-0.0157667
-0.018178
-0.0208918
-0.0239129
-0.0272535
-0.0309334
-0.0349804
-0.0394306
-0.0443286
-0.0497275
-0.0556892
-0.0622835
-0.0695872
-0.0776849
-0.0866654
-0.0966117
-0.107636
-0.11996
-0.133792
-0.149099
-0.165892
-0.183348
-0.199682
-0.214912
-0.229562
-0.244025
-0.258653
-0.273836
-0.290087
-0.307422
-0.324061
-0.33919
-0.352833
-0.364969
-0.375812
-0.385588
-0.394411
-0.402365
-0.40954
-0.416022
-0.421891
-0.427221
-0.432077
-0.436517
-0.440595
-0.444354
-0.447835
-0.451072
-0.454094
-0.456928
-0.459598
-0.462124
-0.464526
-0.466819
-0.469021
-0.471147
-0.47321
-0.475227
-0.477206
-0.479139
-0.481119
-0.48349
-0.485136
-0.0418163
-0.0388337
-0.0367288
-0.0353155
-0.0343384
-0.0337863
-0.0336501
-0.0339016
-0.034513
-0.0354595
-0.0367195
-0.0382758
-0.040116
-0.0422335
-0.0446279
-0.0473056
-0.0502802
-0.053573
-0.0572137
-0.0612413
-0.0657045
-0.0706627
-0.0761862
-0.0823554
-0.0892597
-0.0970003
-0.105683
-0.115382
-0.126206
-0.138571
-0.152964
-0.169335
-0.188238
-0.208736
-0.226272
-0.241555
-0.255932
-0.27005
-0.284406
-0.299642
-0.317089
-0.337448
-0.356172
-0.372339
-0.38652
-0.398681
-0.409314
-0.418839
-0.427365
-0.434965
-0.441745
-0.447809
-0.453249
-0.458148
-0.462581
-0.466613
-0.4703
-0.473688
-0.47682
-0.479728
-0.482444
-0.484991
-0.487394
-0.489669
-0.491836
-0.49391
-0.495903
-0.497831
-0.499705
-0.501539
-0.503341
-0.505109
-0.506903
-0.508935
-0.510533
-0.0654725
-0.0629944
-0.0612417
-0.060061
-0.0592422
-0.058778
-0.0586628
-0.0588754
-0.0593941
-0.0601998
-0.0612759
-0.0626089
-0.0641896
-0.0660136
-0.0680822
-0.0704028
-0.0729897
-0.0758651
-0.07906
-0.0826154
-0.0865835
-0.0910297
-0.0960335
-0.101687
-0.108092
-0.11537
-0.123648
-0.132929
-0.1432
-0.155237
-0.170267
-0.188081
-0.210353
-0.235518
-0.254431
-0.269143
-0.2826
-0.295758
-0.309194
-0.32386
-0.342677
-0.367676
-0.389737
-0.407312
-0.422104
-0.433921
-0.443996
-0.453107
-0.461234
-0.468379
-0.474667
-0.480223
-0.485151
-0.489546
-0.493493
-0.497061
-0.500309
-0.503286
-0.506033
-0.508584
-0.510966
-0.513204
-0.515319
-0.517326
-0.519243
-0.521081
-0.522853
-0.524571
-0.526243
-0.527882
-0.529494
-0.531085
-0.53268
-0.534353
-0.535897
-0.0887111
-0.0867468
-0.0853579
-0.0844243
-0.0837812
-0.0834244
-0.0833509
-0.0835448
-0.0839898
-0.0846714
-0.0855769
-0.0866959
-0.0880215
-0.0895509
-0.0912861
-0.0932348
-0.0954114
-0.0978377
-0.100545
-0.103574
-0.10698
-0.110834
-0.115225
-0.120258
-0.12605
-0.132754
-0.140546
-0.149271
-0.158458
-0.169496
-0.185507
-0.204862
-0.235472
-0.265322
-0.284792
-0.297742
-0.309561
-0.321154
-0.33295
-0.345855
-0.365223
-0.394876
-0.425214
-0.444283
-0.460031
-0.470835
-0.479827
-0.488394
-0.496052
-0.502636
-0.508323
-0.513268
-0.517591
-0.521401
-0.524791
-0.527836
-0.530596
-0.533121
-0.535449
-0.537613
-0.539638
-0.541546
-0.543354
-0.545078
-0.54673
-0.54832
-0.54986
-0.551356
-0.552817
-0.55425
-0.555663
-0.557069
-0.558454
-0.559752
-0.561236
-0.11162
-0.110175
-0.109157
-0.108481
-0.108026
-0.107791
-0.107774
-0.107965
-0.108351
-0.108921
-0.109666
-0.110578
-0.111651
-0.112884
-0.114278
-0.11584
-0.117584
-0.119529
-0.121704
-0.124151
-0.126923
-0.130094
-0.133764
-0.138052
-0.143087
-0.149074
-0.15637
-0.164569
-0.171806
-0.180034
-0.196704
-0.205828
-0.247904
-0.311333
-0.32177
-0.328203
-0.336973
-0.346104
-0.354847
-0.361239
-0.371589
-0.434691
-0.476387
-0.485199
-0.501592
-0.509578
-0.516632
-0.524704
-0.531895
-0.537784
-0.542728
-0.546941
-0.550552
-0.553684
-0.556443
-0.558904
-0.561128
-0.56316
-0.565036
-0.566786
-0.568432
-0.569991
-0.571478
-0.572905
-0.574281
-0.575614
-0.576911
-0.578178
-0.57942
-0.58064
-0.581847
-0.583059
-0.584228
-0.58514
-0.586559
-0.134286
-0.133362
-0.132718
-0.132305
-0.132046
-0.131942
-0.131992
-0.132191
-0.132529
-0.132998
-0.13359
-0.134301
-0.135124
-0.136057
-0.137103
-0.138265
-0.139554
-0.140988
-0.14259
-0.144397
-0.146459
-0.148847
-0.151672
-0.155074
-0.159175
-0.164291
-0.171363
-0.17949
-0.181683
-0.180522
-0.198382
-0.184774
-0.129294
-0.440075
-0.377581
-0.365992
-0.366561
-0.368977
-0.369517
-0.357897
-0.29548
-0.605203
-0.549414
-0.535527
-0.553103
-0.551692
-0.553729
-0.561789
-0.568804
-0.573848
-0.57788
-0.581221
-0.583997
-0.586354
-0.588402
-0.590219
-0.591859
-0.593361
-0.594757
-0.59607
-0.597318
-0.598513
-0.599666
-0.600786
-0.601878
-0.602946
-0.603995
-0.605028
-0.606045
-0.607047
-0.608043
-0.609059
-0.610006
-0.610525
-0.611877
-0.156794
-0.156386
-0.156116
-0.155967
-0.155907
-0.15594
-0.156065
-0.156279
-0.156577
-0.156952
-0.157399
-0.157913
-0.158488
-0.159121
-0.159812
-0.160564
-0.161381
-0.162276
-0.163267
-0.164379
-0.165654
-0.167154
-0.169002
-0.171384
-0.174425
-0.17875
-0.187235
-0.198684
-0.188649
-0.163482
-0.161138
-0.370439
-2.24026
-3.08908
-1.9069
-1.13817
-0.620512
-0.172679
0.344946
1.11357
2.29568
1.45556
-0.41597
-0.624716
-0.622054
-0.596626
-0.586441
-0.597932
-0.60644
-0.610727
-0.613719
-0.616058
-0.61787
-0.619344
-0.620606
-0.621722
-0.622736
-0.623677
-0.624569
-0.625426
-0.626261
-0.627082
-0.627893
-0.628699
-0.629501
-0.630301
-0.631099
-0.631893
-0.632684
-0.633467
-0.634249
-0.635067
-0.635792
-0.635917
-0.637198
-0.179228
-0.179327
-0.179424
-0.179536
-0.179677
-0.179848
-0.180052
-0.180286
-0.18055
-0.180837
-0.181144
-0.181465
-0.181795
-0.182129
-0.182464
-0.182798
-0.183132
-0.183469
-0.183816
-0.184186
-0.184596
-0.185078
-0.185751
-0.186825
-0.188282
-0.191163
-0.203025
-0.228383
-0.229202
-0.189259
-1.94124
-5.46578
-3.27315
-2.61017
-1.84834
-1.20233
-0.668994
-0.175698
0.357655
1.00375
1.766
2.43045
4.61948
1.09546
-0.64822
-0.607818
-0.608542
-0.634094
-0.646102
-0.648983
-0.650412
-0.651463
-0.652114
-0.652577
-0.652974
-0.65334
-0.653693
-0.65405
-0.654421
-0.654811
-0.655225
-0.655664
-0.65613
-0.656619
-0.657131
-0.657661
-0.658207
-0.658765
-0.65933
-0.659894
-0.660465
-0.661085
-0.661588
-0.661324
-0.662534
-0.201668
-0.202259
-0.202713
-0.203081
-0.203417
-0.203726
-0.204009
-0.204267
-0.2045
-0.204706
-0.204878
-0.205012
-0.205102
-0.20514
-0.20512
-0.205036
-0.204881
-0.204652
-0.20434
-0.203938
-0.20342
-0.202741
-0.201896
-0.200798
-0.198202
-0.194097
-0.202155
-0.215721
-0.394518
-3.50564
-2.82308
-3.38658
-2.77642
-2.23013
-1.67397
-1.15384
-0.677448
-0.218794
0.257599
0.77777
1.33411
1.88075
2.49079
1.93007
2.62225
-0.493486
-0.673431
-0.687011
-0.695327
-0.691202
-0.688574
-0.687467
-0.686613
-0.685924
-0.685393
-0.684978
-0.684655
-0.684417
-0.684259
-0.684177
-0.684168
-0.684227
-0.684347
-0.684522
-0.684745
-0.685009
-0.685307
-0.685631
-0.685974
-0.686324
-0.686687
-0.687113
-0.687399
-0.686755
-0.687894
-0.224195
-0.225255
-0.226052
-0.226665
-0.227189
-0.227632
-0.227992
-0.228276
-0.228482
-0.22861
-0.228653
-0.228608
-0.228464
-0.228213
-0.227845
-0.227348
-0.226712
-0.225924
-0.224967
-0.223817
-0.222421
-0.220648
-0.218265
-0.214752
-0.206889
-0.191122
-0.211515
-0.818347
-3.20147
-2.70856
-2.45887
-2.48105
-2.21584
-1.85998
-1.46357
-1.06162
-0.668181
-0.279645
0.113745
0.515597
0.911881
1.26764
1.53282
1.51177
1.7646
2.26241
-0.138795
-0.729905
-0.750682
-0.734688
-0.726754
-0.723245
-0.72087
-0.719096
-0.717691
-0.71652
-0.715533
-0.714706
-0.714025
-0.713477
-0.71305
-0.712732
-0.712513
-0.71238
-0.712322
-0.712327
-0.712383
-0.712481
-0.712609
-0.712751
-0.712913
-0.713151
-0.713228
-0.712219
-0.713288
-0.246882
-0.248385
-0.249504
-0.250348
-0.251052
-0.251621
-0.252056
-0.252364
-0.252546
-0.2526
-0.252523
-0.252305
-0.251937
-0.251408
-0.250703
-0.249807
-0.248704
-0.247378
-0.245813
-0.244
-0.241934
-0.239523
-0.23654
-0.233713
-0.232065
-0.211304
-0.104411
0.951474
-1.10309
-1.66825
-1.82281
-1.86292
-1.74595
-1.53036
-1.25874
-0.960904
-0.654019
-0.345356
-0.038591
0.258975
0.530163
0.74508
0.861076
0.819542
0.661974
0.0880332
-1.99462
-0.891766
-0.782556
-0.761375
-0.759833
-0.757094
-0.754157
-0.751767
-0.749699
-0.74786
-0.746247
-0.744853
-0.743663
-0.74266
-0.741826
-0.741145
-0.740598
-0.740168
-0.739839
-0.739595
-0.739421
-0.739303
-0.739226
-0.73917
-0.739142
-0.739202
-0.73908
-0.737723
-0.738726
-0.269801
-0.271714
-0.273131
-0.27419
-0.275059
-0.275746
-0.276251
-0.276582
-0.276741
-0.276728
-0.276536
-0.276157
-0.275578
-0.274784
-0.273757
-0.272478
-0.270924
-0.269075
-0.266918
-0.264466
-0.26179
-0.258924
-0.255935
-0.255724
-0.265805
-0.262826
1.18734
0.459276
-0.494104
-1.03856
-1.30122
-1.40186
-1.37467
-1.25681
-1.08012
-0.869249
-0.641636
-0.409175
-0.181745
0.0287083
0.204699
0.321424
0.34684
0.243327
-0.0243083
-0.577645
-1.54534
-2.28433
-0.782488
-0.779259
-0.789785
-0.78982
-0.78694
-0.784123
-0.781455
-0.778972
-0.776749
-0.774802
-0.773119
-0.771679
-0.770456
-0.769428
-0.76857
-0.767859
-0.767275
-0.766797
-0.766407
-0.766086
-0.765817
-0.765576
-0.765369
-0.765263
-0.764956
-0.763277
-0.764216
-0.293016
-0.295301
-0.296988
-0.298241
-0.29926
-0.300055
-0.300623
-0.300975
-0.301114
-0.301039
-0.300742
-0.300214
-0.299439
-0.298399
-0.297071
-0.295427
-0.293438
-0.291072
-0.2883
-0.285116
-0.281509
-0.277308
-0.272068
-0.268044
-0.289262
-0.245334
0.424802
0.192392
-0.294052
-0.690647
-0.941672
-1.06865
-1.09406
-1.04211
-0.935668
-0.794349
-0.634097
-0.467965
-0.307933
-0.167108
-0.0615164
-0.0109442
-0.0384866
-0.168784
-0.424908
-0.828989
-1.32477
-1.5634
-0.883116
-0.807762
-0.829658
-0.82591
-0.820811
-0.816669
-0.813073
-0.809851
-0.806994
-0.804501
-0.802342
-0.800486
-0.798898
-0.797545
-0.796398
-0.795428
-0.794608
-0.793915
-0.793326
-0.792819
-0.792374
-0.791965
-0.791595
-0.791336
-0.79086
-0.788887
-0.789768
-0.316589
-0.3192
-0.321126
-0.32255
-0.323703
-0.324591
-0.325216
-0.325587
-0.325707
-0.325576
-0.325185
-0.324524
-0.323573
-0.32231
-0.320707
-0.318729
-0.316334
-0.313475
-0.310111
-0.306201
-0.301589
-0.296239
-0.292885
-0.289328
-0.220473
1.21996
0.564809
0.179541
-0.183853
-0.488314
-0.706166
-0.83703
-0.890801
-0.881926
-0.8261
-0.738386
-0.632441
-0.520652
-0.414925
-0.327701
-0.272726
-0.265211
-0.321074
-0.455087
-0.67757
-0.988649
-1.36138
-1.76139
-2.45158
-0.931428
-0.859994
-0.857189
-0.854195
-0.848917
-0.844315
-0.840359
-0.836889
-0.833874
-0.831271
-0.829032
-0.827109
-0.825463
-0.824054
-0.82285
-0.821819
-0.820932
-0.820165
-0.819493
-0.818891
-0.818331
-0.817815
-0.817421
-0.816794
-0.814561
-0.81539
-0.34057
-0.34346
-0.345589
-0.34716
-0.348425
-0.349395
-0.350067
-0.350453
-0.350558
-0.350379
-0.349907
-0.34913
-0.348027
-0.346571
-0.344728
-0.342455
-0.339699
-0.336392
-0.332462
-0.327826
-0.322227
-0.315011
-0.309125
-0.327449
0.624811
0.707775
0.434931
0.144815
-0.13259
-0.372585
-0.55765
-0.682504
-0.750195
-0.768693
-0.748425
-0.700657
-0.636626
-0.567276
-0.503421
-0.456053
-0.436488
-0.456114
-0.525531
-0.652937
-0.841649
-1.08667
-1.37074
-1.66922
-1.94967
-1.84958
-0.872792
-0.893588
-0.887948
-0.880716
-0.875103
-0.870397
-0.866337
-0.862844
-0.859843
-0.857265
-0.855049
-0.853146
-0.85151
-0.850102
-0.848887
-0.847834
-0.846913
-0.846097
-0.845359
-0.844669
-0.844029
-0.843518
-0.842761
-0.840303
-0.841088
-0.365005
-0.368122
-0.370416
-0.372106
-0.373463
-0.374498
-0.375209
-0.375608
-0.375699
-0.375481
-0.374943
-0.374072
-0.372844
-0.37123
-0.369191
-0.366679
-0.363628
-0.359956
-0.355536
-0.350139
-0.343539
-0.335795
-0.322656
-0.277829
0.828011
0.551398
0.32232
0.0973765
-0.118738
-0.311786
-0.469345
-0.585144
-0.658783
-0.694228
-0.698251
-0.679192
-0.646126
-0.608402
-0.575435
-0.556612
-0.56107
-0.597239
-0.672012
-0.789495
-0.949433
-1.14565
-1.36571
-1.59508
-1.8283
-2.10931
-0.979039
-0.933082
-0.919741
-0.911949
-0.905289
-0.899789
-0.89521
-0.891323
-0.887995
-0.885138
-0.88268
-0.880564
-0.87874
-0.877164
-0.875798
-0.874606
-0.873558
-0.872624
-0.871775
-0.870977
-0.870234
-0.869627
-0.868763
-0.86612
-0.866868
-0.389931
-0.393219
-0.395637
-0.397417
-0.398843
-0.399927
-0.400668
-0.401076
-0.401158
-0.400909
-0.400322
-0.399379
-0.398058
-0.396327
-0.394145
-0.391461
-0.388213
-0.384322
-0.379676
-0.374083
-0.367409
-0.36009
-0.350864
-0.330533
0.437031
0.34748
0.205572
0.0411064
-0.127951
-0.286475
-0.422803
-0.529947
-0.605569
-0.651188
-0.67116
-0.671732
-0.660283
-0.644763
-0.633307
-0.633896
-0.653949
-0.699773
-0.775796
-0.883613
-1.02095
-1.1808
-1.35138
-1.51712
-1.65916
-1.74591
-0.977374
-0.957194
-0.947958
-0.940614
-0.93388
-0.928173
-0.923353
-0.919225
-0.915672
-0.912611
-0.909972
-0.907694
-0.905725
-0.90402
-0.902537
-0.901238
-0.900092
-0.899066
-0.898131
-0.897251
-0.896428
-0.895747
-0.894801
-0.892016
-0.892735
-0.415374
-0.418775
-0.421276
-0.423115
-0.424587
-0.425704
-0.426464
-0.426878
-0.426953
-0.426685
-0.426065
-0.425076
-0.423693
-0.421886
-0.419614
-0.416827
-0.413468
-0.409471
-0.404761
-0.399222
-0.392837
-0.386228
-0.379209
-0.364701
0.210488
0.195917
0.11138
-0.0105744
-0.147702
-0.283362
-0.40544
-0.506268
-0.582358
-0.633794
-0.663469
-0.676297
-0.678506
-0.677054
-0.679135
-0.691722
-0.721067
-0.772115
-0.847794
-0.948226
-1.06994
-1.20524
-1.34188
-1.46289
-1.54531
-1.55523
-0.995225
-0.98124
-0.974345
-0.967757
-0.961335
-0.955685
-0.950791
-0.94654
-0.942854
-0.939663
-0.936904
-0.934518
-0.932451
-0.930657
-0.929093
-0.927722
-0.926508
-0.92542
-0.924425
-0.923489
-0.922611
-0.92188
-0.920877
-0.917994
-0.918694
-0.441354
-0.444809
-0.447348
-0.449215
-0.450709
-0.451841
-0.45261
-0.453028
-0.453099
-0.452822
-0.452186
-0.451175
-0.449765
-0.447923
-0.44561
-0.442778
-0.439372
-0.435336
-0.430611
-0.425122
-0.418906
-0.412613
-0.406222
-0.393359
0.106569
0.114317
0.0546033
-0.0470833
-0.168924
-0.29383
-0.409325
-0.50733
-0.583798
-0.63816
-0.672628
-0.691482
-0.70039
-0.705812
-0.714458
-0.732791
-0.766487
-0.819829
-0.895043
-0.991565
-1.10536
-1.22835
-1.34803
-1.44724
-1.50395
-1.49228
-1.01895
-1.00679
-1.00059
-0.994354
-0.988117
-0.982518
-0.977601
-0.973296
-0.969545
-0.966289
-0.963469
-0.961025
-0.958907
-0.957067
-0.955461
-0.954051
-0.952801
-0.95168
-0.950655
-0.949688
-0.948782
-0.948023
-0.946991
-0.944057
-0.944746
-0.467878
-0.471326
-0.473861
-0.475725
-0.477216
-0.478346
-0.479113
-0.47953
-0.479602
-0.479326
-0.478692
-0.477684
-0.476278
-0.474442
-0.472136
-0.469311
-0.465913
-0.461883
-0.457161
-0.451666
-0.445431
-0.439104
-0.432659
-0.419643
0.0911197
0.100177
0.0397968
-0.06344
-0.187083
-0.313713
-0.430703
-0.529926
-0.607343
-0.662416
-0.697399
-0.716611
-0.72576
-0.73134
-0.740088
-0.758499
-0.792263
-0.84568
-0.920989
-1.01764
-1.13159
-1.25477
-1.37466
-1.47409
-1.531
-1.51942
-1.04526
-1.03308
-1.02686
-1.02061
-1.01436
-1.00875
-1.00382
-0.999508
-0.995749
-0.992487
-0.989661
-0.987212
-0.985089
-0.983245
-0.981635
-0.980222
-0.978969
-0.977845
-0.976817
-0.975848
-0.97494
-0.974179
-0.973144
-0.970205
-0.970894
-0.494946
-0.498327
-0.500814
-0.502642
-0.504106
-0.505216
-0.505972
-0.506385
-0.50646
-0.506195
-0.505582
-0.504602
-0.503233
-0.501443
-0.499191
-0.496428
-0.493092
-0.489117
-0.484418
-0.478866
-0.472425
-0.465712
-0.4585
-0.443462
0.167559
0.155475
0.0678501
-0.0593905
-0.202256
-0.343236
-0.469848
-0.574328
-0.653234
-0.706762
-0.737938
-0.751801
-0.754698
-0.753688
-0.756058
-0.768852
-0.79838
-0.849639
-0.925596
-1.0264
-1.14859
-1.28447
-1.42176
-1.54345
-1.62652
-1.63684
-1.07415
-1.06009
-1.05315
-1.04652
-1.04006
-1.03438
-1.02945
-1.02518
-1.02147
-1.01826
-1.01548
-1.01308
-1.011
-1.00919
-1.00762
-1.00624
-1.00501
-1.00392
-1.00291
-1.00197
-1.00108
-1.00035
-0.999336
-0.996438
-0.997136
-0.522546
-0.525803
-0.528197
-0.529959
-0.531372
-0.532445
-0.533179
-0.533584
-0.533666
-0.533423
-0.532846
-0.531919
-0.53062
-0.528917
-0.526771
-0.524129
-0.520926
-0.517079
-0.512464
-0.506866
-0.500117
-0.492619
-0.482893
-0.461174
0.378932
0.286312
0.135518
-0.039717
-0.219317
-0.387131
-0.531126
-0.644308
-0.724503
-0.773461
-0.795787
-0.797952
-0.787533
-0.772656
-0.761601
-0.762465
-0.782768
-0.828899
-0.905357
-1.01378
-1.15191
-1.31275
-1.48446
-1.65144
-1.79476
-1.88265
-1.10897
-1.08862
-1.0793
-1.07189
-1.06509
-1.05932
-1.05445
-1.05028
-1.04669
-1.0436
-1.04093
-1.03863
-1.03663
-1.03491
-1.03341
-1.03209
-1.03093
-1.02989