/*--------------------------------*- C++ -*----------------------------------*\
  =========                 |
  \\      /  F ield         | OpenFOAM: The Open Source CFD Toolbox
   \\    /   O peration     | Website:  https://openfoam.org
    \\  /    A nd           | Version:  7
     \\/     M anipulation  |
\*---------------------------------------------------------------------------*/
FoamFile
{
    version     2.0;
    format      ascii;
    class       volScalarField;
    location    "0";
    object      p_rgh;
}
// * * * * * * * * * * * * * * * * * * * * * * * * * * * * * * * * * * * * * //

dimensions      [1 -1 -2 0 0 0 0];

internalField   nonuniform List<scalar> 
48000
(
2.10036
2.10036
2.10035
2.10035
2.10034
2.10033
2.10033
2.10032
2.10032
2.10031
2.10031
2.10031
2.10031
2.10031
2.10032
2.10033
2.10034
2.10035
2.10037
2.10039
2.10042
2.10044
2.10046
2.10048
2.1005
2.1005
2.1005
2.09951
2.09858
2.09764
2.09668
2.09571
2.09473
2.09374
2.09274
2.09172
2.09069
2.08964
2.08856
2.08747
2.08635
2.0852
2.08403
2.08282
2.08159
2.08031
2.079
2.079
2.079
2.079
2.079
2.079
2.07753
2.07607
2.07461
2.07316
2.07169
2.07022
2.06872
2.0672
2.06564
2.06403
2.06237
2.06065
2.05887
2.05702
2.05506
2.05292
2.0504
2.0504
2.0504
2.0504
2.0504
2.0504
2.0504
2.0504
2.0504
2.0504
2.0504
2.0504
2.0504
1.98419
1.93082
1.88212
1.83351
1.78043
1.7148
1.7148
1.7148
1.7148
1.7148
1.7148
1.7148
1.7148
1.7148
1.7148
1.71028
1.70558
1.70061
1.69534
1.68978
1.68393
1.6778
1.6714
1.66475
1.65789
1.65085
1.64368
1.63645
1.6292
1.622
1.61487
1.60782
1.60078
1.59362
1.59362
1.59362
1.59362
1.59363
1.59364
1.593
1.59178
1.59032
1.58866
1.58676
1.58457
1.58197
1.5788
1.57486
1.5699
1.56366
1.55587
1.54632
1.53484
1.52145
1.50634
1.48993
1.47295
1.45651
1.44223
1.43278
1.43164
1.43194
1.43212
1.43208
1.43184
1.4315
1.43108
1.4306
1.43003
1.42931
1.42836
1.42706
1.42528
1.42282
1.4195
1.41507
1.40913
1.40099
1.38987
1.37678
1.36583
1.35778
1.35106
1.34489
1.33959
1.33529
1.33188
1.3293
1.32755
1.32663
1.32658
1.32699
1.33435
1.33255
1.32809
1.32399
1.32056
1.31773
1.31542
1.31351
1.31186
1.31027
1.30856
1.30649
1.3038
1.30019
1.29536
1.28902
1.281
1.2712
1.25946
1.24643
1.23907
1.25392
1.25451
1.25412
1.25213
1.24904
1.2454
1.24162
1.23787
1.23418
1.23053
1.2269
1.2233
1.2198
1.21657
1.21373
1.2113
1.20924
1.2075
1.20604
1.2048
1.20375
1.20287
1.20213
1.2015
1.20098
1.20053
1.20015
1.19983
1.19955
1.19934
1.1992
1.19916
1.19926
1.19948
1.19972
1.19985
1.19198
1.18252
1.17173
1.16017
1.14829
1.13637
1.12465
1.11329
1.10241
1.09208
1.0823
1.07304
1.06418
1.05559
1.04712
1.03857
1.02979
1.0206
1.01088
1.00055
0.989593
0.97806
0.966101
0.953964
0.942002
0.930682
0.920574
0.912326
0.90677
0.907012
0.907279
0.907454
0.907491
0.907407
0.907235
0.907006
0.906734
0.906424
0.906072
0.905664
0.905182
0.904604
0.903902
0.903044
0.901993
0.900712
0.899162
0.897304
0.895104
0.892543
0.889651
0.88655
0.8834
0.880239
0.877034
0.873774
0.870454
0.867083
0.863748
0.860738
0.858659
0.858139
0.858609
0.872238
0.861397
0.844499
0.829232
0.816629
0.807009
0.800148
0.795582
0.792754
0.791147
0.790329
0.789954
0.789752
0.789496
0.788982
0.788015
0.786411
0.784029
0.780794
0.776773
0.772346
0.770346
0.77689
0.777268
0.777229
0.776399
0.774803
0.772467
0.769357
0.765406
0.760453
0.754429
0.747167
0.737507
0.725516
0.713472
0.703681
0.696444
0.691102
0.687096
0.684068
0.68182
0.680178
0.678984
0.678108
0.677448
0.676929
0.676506
0.676161
0.675908
0.67579
0.675862
0.676204
0.67707
0.668978
0.654527
0.636648
0.617008
0.59717
0.578322
0.561218
0.546242
0.533502
0.522899
0.514216
0.507172
0.501469
0.496817
0.492954
0.489664
0.486785
0.484207
0.481858
0.479685
0.477545
0.477538
0.477544
0.477554
0.477559
0.477553
0.471646
0.465681
0.459512
0.453124
0.44655
0.439847
0.433086
0.426344
0.419692
0.413193
0.406897
0.400838
0.395033
0.389483
0.384177
0.379084
0.374144
0.36921
0.363842
0.363842
0.363842
0.363842
0.363842
0.363842
0.363842
0.363842
0.363842
0.363842
0.363842
0.302217
0.252334
0.206586
0.160677
0.110287
0.0477132
0.0477132
0.0477132
0.0477132
0.0477132
0.0477132
0.0477132
0.0477132
0.0477132
0.0477132
0.0477132
0.0477132
0.0477132
0.0454006
0.0434478
0.041653
0.0399475
0.0383062
0.0367186
0.0351791
0.0336829
0.0322249
0.0307992
0.0294003
0.028023
0.0266637
0.0253151
0.0239744
0.0226229
0.0211505
0.0211446
0.0211365
0.0211278
0.021122
0.0211199
0.0194401
0.0180484
0.0167496
0.0154982
0.0142788
0.0130862
0.0119177
0.0107709
0.00964317
0.00853144
0.00743235
0.00634263
0.00525945
0.0041807
0.00310492
0.0020308
0.000955249
-0.000177679
-0.000184665
-0.000182564
-0.000171882
-0.000154129
-0.00013147
-0.000106344
-8.08847e-05
-5.66844e-05
-3.47842e-05
-1.5745e-05
2.50081e-07
1.32883e-05
2.36282e-05
3.16156e-05
3.75986e-05
4.17955e-05
4.41808e-05
4.48724e-05
4.33892e-05
2.65704e-05
2.10037
2.10036
2.10036
2.10035
2.10034
2.10034
2.10033
2.10033
2.10033
2.10032
2.10032
2.10032
2.10032
2.10033
2.10033
2.10034
2.10035
2.10037
2.10039
2.10041
2.10043
2.10045
2.10047
2.10049
2.1005
2.1005
2.10049
2.09951
2.09859
2.09765
2.0967
2.09573
2.09475
2.09375
2.09275
2.09174
2.09071
2.08966
2.08859
2.08749
2.08637
2.08523
2.08406
2.08286
2.08162
2.08034
2.079
2.079
2.079
2.079
2.079
2.079
2.07753
2.07606
2.07461
2.07316
2.07171
2.07024
2.06875
2.06724
2.06568
2.06408
2.06243
2.06072
2.05895
2.05712
2.05523
2.05332
2.0515
2.0504
2.0504
2.0504
2.0504
2.0504
2.0504
2.0504
2.0504
2.0504
2.0504
2.0504
2.01667
1.97137
1.92614
1.88202
1.83798
1.793
1.74809
1.7148
1.7148
1.7148
1.7148
1.7148
1.7148
1.7148
1.7148
1.7148
1.71046
1.70585
1.7009
1.69564
1.69007
1.68421
1.67807
1.67165
1.66497
1.65807
1.65098
1.64375
1.63646
1.62916
1.62192
1.61479
1.60782
1.60091
1.59363
1.59362
1.59362
1.59362
1.59363
1.59364
1.59362
1.59203
1.59053
1.58889
1.58705
1.58497
1.58254
1.57958
1.57588
1.57118
1.5652
1.55764
1.54823
1.53676
1.52318
1.50763
1.49049
1.47243
1.45434
1.43739
1.42895
1.43097
1.43155
1.43174
1.43171
1.43152
1.43119
1.43077
1.43025
1.42961
1.4288
1.42774
1.42633
1.42444
1.42189
1.41848
1.41402
1.40819
1.40044
1.38946
1.37695
1.36609
1.35845
1.35186
1.34565
1.3404
1.33621
1.33288
1.33037
1.32864
1.32765
1.3274
1.32831
1.33282
1.33519
1.32773
1.32333
1.31996
1.31721
1.31502
1.31326
1.31179
1.3104
1.30892
1.30711
1.30472
1.30142
1.29685
1.29071
1.28279
1.27312
1.26076
1.24075
1.24113
1.25128
1.25324
1.25269
1.25085
1.24809
1.24477
1.24126
1.2377
1.23414
1.2306
1.22707
1.22358
1.22018
1.21705
1.21428
1.21188
1.20983
1.20807
1.20657
1.2053
1.20421
1.2033
1.20252
1.20186
1.20131
1.20083
1.20044
1.2001
1.19983
1.19963
1.1995
1.19948
1.19957
1.19978
1.2001
1.2007
1.19414
1.18387
1.17248
1.16051
1.14832
1.13618
1.12428
1.1128
1.10186
1.09152
1.0818
1.07263
1.0639
1.05548
1.04718
1.03881
1.03019
1.02113
1.0115
1.00119
0.990166
0.978485
0.96628
0.953789
0.94136
0.929471
0.918713
0.909505
0.905381
0.906617
0.906996
0.90716
0.907204
0.907137
0.906985
0.906768
0.906497
0.906176
0.905801
0.905362
0.904841
0.90422
0.903473
0.902571
0.901483
0.900174
0.898611
0.896764
0.894608
0.892125
0.889323
0.886304
0.883248
0.880171
0.877034
0.873868
0.870697
0.867556
0.864527
0.86183
0.859924
0.859277
0.861204
0.871663
0.867454
0.842868
0.82657
0.813644
0.804251
0.797853
0.793843
0.791534
0.790359
0.789884
0.789782
0.789806
0.789753
0.789435
0.788653
0.787189
0.784883
0.781578
0.777181
0.769919
0.771564
0.775678
0.77651
0.776292
0.775392
0.773809
0.771513
0.768448
0.764546
0.759593
0.753602
0.74662
0.736989
0.725563
0.714112
0.704364
0.697369
0.692084
0.68803
0.68492
0.682589
0.680855
0.679561
0.67859
0.677851
0.677276
0.676824
0.676476
0.676236
0.67613
0.676206
0.676457
0.676624
0.672711
0.657955
0.638409
0.617205
0.596179
0.57658
0.559088
0.544008
0.531364
0.52098
0.512576
0.505832
0.500419
0.496028
0.492381
0.489253
0.486485
0.483976
0.481683
0.479591
0.477553
0.477538
0.477543
0.477555
0.47756
0.477547
0.471764
0.465885
0.45973
0.453311
0.446679
0.439904
0.433068
0.426253
0.419538
0.41299
0.40666
0.400584
0.394777
0.389241
0.383964
0.378931
0.374139
0.369644
0.365764
0.363842
0.363842
0.363842
0.363842
0.363842
0.363842
0.363842
0.363842
0.363842
0.332634
0.290475
0.248198
0.206747
0.165158
0.122471
0.0796539
0.0477132
0.0477132
0.0477132
0.0477132
0.0477132
0.0477132
0.0477132
0.0477132
0.0477132
0.0477132
0.0477132
0.0467028
0.0450409
0.0432899
0.0415636
0.0398835
0.0382527
0.0366709
0.0351364
0.0336456
0.0321935
0.0307738
0.0293802
0.0280073
0.0266515
0.0253095
0.0239754
0.0226455
0.0211565
0.0211471
0.0211368
0.0211262
0.0211188
0.0203138
0.0191732
0.0179366
0.0166922
0.0154613
0.0142504
0.0130618
0.0118961
0.0107521
0.00962752
0.00851911
0.00742322
0.00633626
0.00525517
0.00417783
0.00310336
0.00203228
0.000967234
-0.000170779
-0.000183006
-0.0001812
-0.000171502
-0.00015615
-0.0001366
-0.000114662
-9.2027e-05
-7.0026e-05
-4.96001e-05
-3.13323e-05
-1.55063e-05
-2.1788e-06
8.74582e-06
1.74478e-05
2.41235e-05
2.88485e-05
3.14584e-05
3.23473e-05
3.29598e-05
2.2416e-05
2.10037
2.10036
2.10036
2.10035
2.10035
2.10034
2.10034
2.10033
2.10033
2.10033
2.10033
2.10033
2.10033
2.10034
2.10035
2.10036
2.10037
2.10038
2.1004
2.10042
2.10044
2.10046
2.10048
2.1005
2.10051
2.10051
2.10051
2.09954
2.09862
2.09768
2.09672
2.09575
2.09477
2.09378
2.09278
2.09177
2.09074
2.0897
2.08863
2.08754
2.08643
2.08528
2.08412
2.08293
2.08171
2.08044
2.079
2.079
2.079
2.079
2.079
2.079
2.07751
2.07605
2.07461
2.07317
2.07173
2.07028
2.06881
2.06731
2.06577
2.06419
2.06254
2.06084
2.05908
2.05727
2.05544
2.05362
2.0519
2.0504
2.0504
2.0504
2.0504
2.0504
2.0504
2.0504
2.0504
2.0504
2.0504
2.0249
1.9945
1.95846
1.92037
1.88184
1.84338
1.80549
1.76977
1.73977
1.7148
1.7148
1.7148
1.7148
1.7148
1.7148
1.7148
1.7148
1.71093
1.70644
1.70151
1.69624
1.69066
1.68478
1.67861
1.67215
1.66541
1.65843
1.65124
1.6439
1.63648
1.62905
1.62172
1.61457
1.60775
1.60146
1.59622
1.59363
1.5936
1.59361
1.59363
1.59365
1.59362
1.5923
1.59088
1.5893
1.5876
1.58574
1.58363
1.58109
1.5779
1.57375
1.56833
1.56127
1.55221
1.54079
1.52688
1.51052
1.49196
1.47193
1.45102
1.43301
1.43128
1.43112
1.43149
1.43165
1.43159
1.43137
1.43104
1.43061
1.43009
1.42944
1.42863
1.42759
1.42622
1.42441
1.422
1.41876
1.41469
1.4095
1.40343
1.39208
1.37411
1.36299
1.35725
1.35161
1.34558
1.34016
1.33613
1.33289
1.33047
1.32875
1.32765
1.32723
1.32738
1.3257
1.32517
1.3243
1.32163
1.31875
1.31612
1.31418
1.31274
1.31162
1.31063
1.3096
1.30832
1.30655
1.3039
1.29993
1.29416
1.28632
1.27775
1.26969
1.26582
1.25784
1.25372
1.25399
1.25301
1.25083
1.2479
1.2445
1.24103
1.23757
1.2341
1.23062
1.22716
1.22369
1.22023
1.2171
1.21439
1.21204
1.21002
1.20829
1.2068
1.20553
1.20444
1.20352
1.20274
1.20207
1.2015
1.20102
1.20062
1.20028
1.2
1.1998
1.19966
1.19963
1.19972
1.19994
1.20049
1.20251
1.19824
1.18633
1.17381
1.16106
1.14831
1.13574
1.1235
1.11178
1.1007
1.09035
1.08073
1.07177
1.06333
1.05525
1.04732
1.03931
1.03102
1.02224
1.01278
1.00253
0.991401
0.979433
0.966744
0.953553
0.94018
0.927127
0.915302
0.906946
0.906719
0.906643
0.906897
0.907052
0.907073
0.906994
0.906837
0.906618
0.906345
0.906018
0.905634
0.905183
0.90465
0.904017
0.90326
0.902354
0.901269
0.89997
0.898426
0.896614
0.894506
0.892069
0.889258
0.886171
0.883161
0.880167
0.877063
0.873947
0.870851
0.867785
0.864747
0.86181
0.859488
0.858365
0.858481
0.853909
0.84058
0.832948
0.820534
0.807128
0.798497
0.79317
0.790404
0.789179
0.788871
0.789066
0.789485
0.789937
0.790275
0.790352
0.789971
0.78881
0.786734
0.783457
0.780452
0.7791
0.778038
0.776523
0.776664
0.776292
0.775286
0.773714
0.771501
0.768534
0.764828
0.759881
0.754542
0.749048
0.7393
0.725621
0.711918
0.701931
0.696289
0.691522
0.687798
0.684833
0.682619
0.680965
0.679711
0.678755
0.678018
0.677441
0.676983
0.676629
0.676378
0.676252
0.676284
0.676471
0.67702
0.679715
0.666175
0.641827
0.617225
0.593762
0.57273
0.554547
0.539337
0.526966
0.51708
0.509277
0.503159
0.498348
0.494494
0.491288
0.488484
0.485924
0.483531
0.481306
0.479319
0.477552
0.477527
0.477538
0.477559
0.47757
0.477554
0.472092
0.466366
0.460212
0.453712
0.446951
0.440023
0.433028
0.426064
0.419218
0.412568
0.40617
0.40006
0.394251
0.388738
0.383506
0.378538
0.373836
0.369464
0.365728
0.363841
0.363842
0.363842
0.363842
0.363841
0.363841
0.363842
0.363842
0.340488
0.31238
0.278849
0.243238
0.207046
0.170737
0.134786
0.100718
0.0719274
0.0477132
0.0477132
0.0477132
0.0477132
0.0477132
0.0477132
0.0477132
0.0477132
0.0477132
0.0477132
0.0463441
0.044771
0.0431073
0.0414283
0.0397703
0.0381503
0.0365764
0.0350506
0.0335706
0.0321307
0.0307234
0.029341
0.0279769
0.026628
0.0252934
0.0239725
0.0226621
0.0211614
0.0211496
0.0211368
0.0211239
0.0211118
0.0200329
0.0189736
0.0178124
0.0166098
0.0153988
0.0141972
0.013014
0.0118529
0.0107143
0.00959603
0.00849453
0.00740539
0.00632421
0.00524728
0.00417222
0.00309848
0.00202778
0.000964536
-0.000176716
-0.000189495
-0.000187308
-0.000177403
-0.00016245
-0.000143768
-0.000122923
-0.000101381
-8.03026e-05
-6.05276e-05
-4.26053e-05
-2.68352e-05
-1.33229e-05
-2.03896e-06
7.12991e-06
1.43317e-05
1.96211e-05
2.28392e-05
2.46906e-05
2.79406e-05
2.19141e-05
2.10037
2.10037
2.10036
2.10035
2.10035
2.10035
2.10034
2.10034
2.10034
2.10034
2.10034
2.10034
2.10034
2.10035
2.10035
2.10036
2.10038
2.10039
2.10041
2.10043
2.10045
2.10047
2.10049
2.10051
2.10053
2.10053
2.10053
2.09959
2.09867
2.09773
2.09676
2.09578
2.0948
2.09381
2.09281
2.09181
2.0908
2.08976
2.0887
2.08762
2.08651
2.08536
2.0842
2.08303
2.08185
2.0807
2.07964
2.079
2.079
2.079
2.079
2.079
2.07745
2.07602
2.0746
2.07319
2.07177
2.07034
2.0689
2.06743
2.06592
2.06435
2.06272
2.06102
2.05926
2.05746
2.05563
2.05382
2.05207
2.0504
2.0504
2.0504
2.0504
2.0504
2.0504
2.0504
2.0504
2.03763
2.0253
2.00432
1.97798
1.94761
1.91503
1.8816
1.84823
1.81582
1.78572
1.75973
1.73914
1.72713
1.7148
1.7148
1.7148
1.7148
1.7148
1.7148
1.712
1.70749
1.70247
1.69715
1.69154
1.68564
1.67944
1.67293
1.6661
1.65899
1.65165
1.64412
1.6365
1.62886
1.62133
1.61402
1.60714
1.60096
1.59597
1.59349
1.59356
1.5936
1.59365
1.59369
1.59376
1.5929
1.59141
1.58985
1.5883
1.58675
1.58514
1.58327
1.58086
1.57759
1.57308
1.5669
1.55853
1.54732
1.53302
1.51561
1.49491
1.47231
1.44482
1.42521
1.43062
1.43156
1.43178
1.43181
1.43165
1.43138
1.43102
1.43059
1.43009
1.42949
1.42876
1.42783
1.42664
1.42509
1.42297
1.42006
1.41725
1.41337
1.41108
1.41209
1.3538
1.35488
1.35507
1.35148
1.34394
1.33825
1.3351
1.33201
1.32975
1.32811
1.32689
1.32608
1.32545
1.32414
1.3229
1.32269
1.32015
1.31726
1.31436
1.31283
1.3119
1.31132
1.3109
1.31052
1.31004
1.30924
1.30771
1.30481
1.2997
1.29058
1.28187
1.27444
1.26612
1.26225
1.25884
1.25691
1.25456
1.25165
1.24824
1.24445
1.24089
1.23747
1.23405
1.23063
1.2272
1.22367
1.22001
1.21678
1.21409
1.21182
1.20988
1.20821
1.20677
1.20553
1.20447
1.20357
1.2028
1.20214
1.20159
1.20111
1.20071
1.20037
1.20008
1.19986
1.1997
1.19962
1.19966
1.19986
1.20017
1.1998
1.20078
1.18939
1.17539
1.1616
1.14813
1.13496
1.12222
1.11011
1.09883
1.08846
1.07901
1.07038
1.06241
1.05487
1.04752
1.0401
1.03235
1.02402
1.01487
1.00473
0.993478
0.981104
0.967711
0.953497
0.938679
0.923554
0.908424
0.90368
0.906393
0.906825
0.906998
0.907088
0.907064
0.906952
0.906774
0.906544
0.906265
0.905938
0.905556
0.905111
0.904588
0.90397
0.903235
0.902359
0.901312
0.900058
0.898563
0.89681
0.894765
0.89235
0.889416
0.886106
0.883109
0.880218
0.877115
0.874012
0.87095
0.86788
0.864641
0.861111
0.857905
0.855222
0.852817
0.848878
0.844336
0.82781
0.815489
0.795838
0.78944
0.785927
0.785424
0.785907
0.786879
0.788024
0.789155
0.790182
0.791059
0.791727
0.79207
0.791347
0.789786
0.785063
0.78207
0.780546
0.779447
0.778278
0.777711
0.776977
0.775873
0.774377
0.772318
0.769505
0.766679
0.761768
0.756123
0.755818
0.755638
0.725709
0.69576
0.695354
0.692875
0.689226
0.686632
0.68395
0.682007
0.680587
0.679492
0.678646
0.677981
0.677445
0.677005
0.676643
0.67636
0.676169
0.676112
0.676263
0.676567
0.676024
0.671791
0.645498
0.616106
0.588914
0.566031
0.547034
0.531827
0.520083
0.511097
0.504292
0.49918
0.49532
0.492311
0.489793
0.487469
0.485198
0.482918
0.480692
0.478599
0.477404
0.477483
0.477528
0.477569
0.477601
0.477608
0.472856
0.467273
0.461042
0.454372
0.447389
0.44021
0.432958
0.425754
0.418703
0.411895
0.405393
0.399235
0.393428
0.387955
0.382783
0.377879
0.373202
0.36865
0.363841
0.363841
0.363841
0.363842
0.363841
0.363841
0.363841
0.35236
0.341149
0.321891
0.297547
0.269305
0.238859
0.20746
0.17596
0.145216
0.116505
0.0915653
0.0716485
0.059919
0.0477132
0.0477132
0.0477132
0.0477132
0.0477132
0.0477132
0.0477132
0.0477132
0.0461897
0.044592
0.0429403
0.0412723
0.0396191
0.0380023
0.0364342
0.0349196
0.033456
0.0320361
0.0306491
0.0292843
0.0279334
0.0265938
0.0252683
0.0239602
0.0226692
0.0211649
0.0211512
0.0211369
0.0211224
0.021108
0.019904
0.018846
0.0177077
0.0165224
0.0153203
0.0141229
0.0129431
0.0117872
0.0106563
0.00954811
0.00845787
0.00737982
0.00630808
0.00523766
0.00416538
0.00309065
0.00201588
0.000946368
-0.00019521
-0.000204784
-0.000200851
-0.00018922
-0.000172774
-0.000153048
-0.000131582
-0.000109726
-8.85206e-05
-6.86991e-05
-5.07329e-05
-3.48744e-05
-2.12075e-05
-9.69739e-06
-2.29537e-07
7.3576e-06
1.31546e-05
1.70624e-05
2.00189e-05
2.54704e-05
2.21898e-05
2.10037
2.10037
2.10036
2.10036
2.10035
2.10035
2.10034
2.10034
2.10034
2.10034
2.10034
2.10034
2.10035
2.10035
2.10036
2.10037
2.10038
2.1004
2.10041
2.10043
2.10046
2.10048
2.1005
2.10053
2.10055
2.10056
2.10057
2.09968
2.09875
2.0978
2.09682
2.09582
2.09483
2.09385
2.09286
2.09187
2.09087
2.08985
2.0888
2.08772
2.08661
2.08547
2.0843
2.08312
2.08197
2.08086
2.07986
2.079
2.079
2.079
2.079
2.07842
2.07728
2.07596
2.0746
2.07321
2.07181
2.07042
2.06902
2.06759
2.06611
2.06457
2.06296
2.06126
2.05949
2.05766
2.05581
2.05397
2.05216
2.0504
2.0504
2.0504
2.0504
2.0504
2.0504
2.0504
2.03812
2.02441
2.00887
1.98909
1.96551
1.93896
1.91054
1.88129
1.8521
1.82385
1.79755
1.7743
1.75491
1.73978
1.72654
1.7148
1.7148
1.7148
1.7148
1.7148
1.7148
1.70904
1.70374
1.69834
1.69271
1.6868
1.68058
1.67401
1.66708
1.6598
1.65223
1.64445
1.63653
1.62857
1.6207
1.61306
1.60583
1.59926
1.59335
1.59343
1.59352
1.59359
1.59366
1.59374
1.59384
1.59396
1.59199
1.59039
1.58899
1.58782
1.58692
1.58599
1.58469
1.58266
1.5795
1.57473
1.56768
1.55696
1.54226
1.52398
1.49977
1.47757
1.45867
1.43382
1.43184
1.43233
1.43242
1.43219
1.43185
1.43148
1.43107
1.43065
1.43018
1.42967
1.42908
1.42835
1.42744
1.42632
1.42471
1.42186
1.42005
1.41965
1.40292
1.39748
1.36437
1.35954
1.35982
1.3572
1.33406
1.33444
1.33307
1.3302
1.32839
1.32702
1.32585
1.32491
1.32407
1.32302
1.32194
1.32106
1.31902
1.3158
1.31124
1.31086
1.31071
1.31086
1.31114
1.31154
1.31207
1.31266
1.3129
1.31191
1.30922
1.29444
1.28471
1.27362
1.26988
1.26629
1.2629
1.25981
1.25636
1.25277
1.24854
1.24435
1.2407
1.23736
1.23401
1.23065
1.22728
1.22368
1.21974
1.21609
1.21345
1.21129
1.20946
1.2079
1.20654
1.20536
1.20435
1.20349
1.20275
1.20213
1.20159
1.20113
1.20074
1.2004
1.20011
1.19986
1.19965
1.19951
1.19945
1.19952
1.1997
1.20036
1.20491
1.19507
1.17675
1.16183
1.14764
1.13374
1.1203
1.10762
1.09602
1.08565
1.07647
1.06834
1.06105
1.0543
1.04779
1.04122
1.03427
1.02661
1.01796
1.00805
0.996677
0.983792
0.9695
0.954045
0.937484
0.919987
0.905423
0.907445
0.906831
0.90708
0.907242
0.907242
0.907141
0.906976
0.906766
0.906518
0.906234
0.905911
0.905542
0.905116
0.904619
0.904037
0.903349
0.902533
0.901557
0.90038
0.898955
0.897286
0.895338
0.892961
0.889614
0.886013
0.88301
0.88026
0.877167
0.87407
0.871062
0.868039
0.86464
0.86054
0.856191
0.852265
0.848207
0.84397
0.839709
0.83527
0.817774
0.771294
0.777496
0.775674
0.779459
0.782146
0.784712
0.786998
0.788927
0.790579
0.792049
0.793428
0.795236
0.79472
0.795999
0.784939
0.782118
0.781398
0.780477
0.779546
0.778788
0.777935
0.776863
0.775604
0.773937
0.771261
0.769867
0.76989
0.749043
0.75112
0.744773
0.726971
0.709937
0.702851
0.686953
0.686608
0.684965
0.682354
0.680881
0.679852
0.679015
0.678351
0.67781
0.677349
0.676942
0.676574
0.676243
0.675959
0.675761
0.675704
0.675811
0.676764
0.683509
0.652267
0.612789
0.579756
0.555446
0.53573
0.520854
0.51044
0.502935
0.497614
0.493948
0.491441
0.489638
0.488103
0.486403
0.484479
0.48225
0.479944
0.477191
0.477323
0.477434
0.477517
0.477591
0.477667
0.477784
0.474607
0.46883
0.462311
0.455345
0.448023
0.44047
0.43284
0.42529
0.417947
0.410914
0.404271
0.398058
0.392273
0.38687
0.381793
0.376995
0.372442
0.368092
0.363841
0.363841
0.363841
0.363842
0.363841
0.363841
0.352933
0.340608
0.326503
0.308378
0.286614
0.261962
0.235434
0.207977
0.180424
0.153615
0.12852
0.106181
0.0873965
0.0726009
0.0594872
0.0477132
0.0477132
0.0477132
0.0477132
0.0477132
0.0477132
0.0477133
0.0461095
0.0444674
0.0427898
0.0411015
0.0394318
0.0378057
0.0362391
0.034738
0.0332986
0.0319092
0.0305534
0.0292145
0.027881
0.0265509
0.0252319
0.0239331
0.0226645
0.0211669
0.0211515
0.0211371
0.021122
0.0211056
0.0198388
0.0187687
0.0176271
0.0164377
0.0152298
0.0140277
0.0128472
0.0116962
0.0105759
0.00948248
0.00840929
0.00734815
0.00629079
0.00523003
0.00416111
0.00308293
0.00199879
0.000915906
-0.000224718
-0.000228388
-0.000221191
-0.000206178
-0.000186515
-0.000164202
-0.00014083
-0.000117658
-9.55998e-05
-7.52554e-05
-5.69775e-05
-4.09254e-05
-2.71154e-05
-1.54649e-05
-5.82264e-06
2.01158e-06
8.17694e-06
1.26377e-05
1.64767e-05
2.34658e-05
2.20402e-05
2.10038
2.10037
2.10036
2.10036
2.10035
2.10035
2.10035
2.10034
2.10034
2.10034
2.10034
2.10034
2.10035
2.10035
2.10036
2.10037
2.10038
2.1004
2.10042
2.10044
2.10046
2.10049
2.10052
2.10055
2.10058
2.1006
2.10063
2.09981
2.09887
2.09789
2.09688
2.09587
2.09487
2.09388
2.09291
2.09194
2.09096
2.08996
2.08893
2.08786
2.08675
2.08559
2.0844
2.0832
2.08203
2.08093
2.07994
2.07901
2.079
2.079
2.07901
2.07841
2.07727
2.07597
2.07461
2.07323
2.07186
2.07051
2.06916
2.06779
2.06637
2.06487
2.06328
2.06157
2.05977
2.05789
2.05598
2.05407
2.05221
2.0504
2.0504
2.0504
2.0504
2.0504
2.0504
2.03982
2.0273
2.013
1.99669
1.97766
1.95599
1.93217
1.90689
1.88093
1.85502
1.82991
1.80635
1.78502
1.7664
1.75055
1.73677
1.7248
1.71479
1.71479
1.7148
1.7148
1.7148
1.71014
1.7051
1.69976
1.69415
1.68828
1.68208
1.67547
1.6684
1.66089
1.65303
1.64491
1.6366
1.62819
1.61984
1.61169
1.60387
1.59688
1.59324
1.59337
1.59348
1.59357
1.59367
1.59377
1.5939
1.59401
1.59215
1.59071
1.58947
1.5886
1.58874
1.58908
1.58925
1.58887
1.58753
1.58485
1.58048
1.57058
1.55508
1.53828
1.50263
1.47952
1.43854
1.43615
1.43468
1.43402
1.43335
1.43269
1.43211
1.43161
1.43116
1.43074
1.43034
1.42994
1.42953
1.42907
1.42855
1.4281
1.42769
1.42629
1.41317
1.38567
1.36183
1.38012
1.38115
1.39874
1.38992
1.37772
1.3551
1.3412
1.32869
1.3273
1.3266
1.32569
1.32463
1.32371
1.32289
1.32201
1.32112
1.32035
1.31982
1.31567
1.30394
1.30868
1.30923
1.31025
1.31127
1.31242
1.31405
1.31644
1.31931
1.3207
1.33085
1.29324
1.28091
1.27741
1.2738
1.27016
1.26652
1.26267
1.25817
1.25483
1.2497
1.2433
1.2402
1.23721
1.23397
1.2307
1.22758
1.22429
1.21843
1.21421
1.21227
1.21038
1.20878
1.20738
1.20613
1.20503
1.20408
1.20329
1.2026
1.20202
1.20151
1.20108
1.20071
1.20038
1.20008
1.1998
1.19954
1.1993
1.19909
1.19896
1.19907
1.19943
1.19777
1.1849
1.17472
1.16133
1.14685
1.13208
1.11761
1.10406
1.092
1.08163
1.07287
1.06548
1.05914
1.05348
1.04813
1.04272
1.03688
1.0302
1.02231
1.01282
1.00139
0.987888
0.972453
0.955699
0.937225
0.913487
0.900715
0.906774
0.907534
0.90763
0.907622
0.907489
0.907285
0.90705
0.906797
0.906529
0.906244
0.905932
0.905584
0.90519
0.904737
0.90421
0.903592
0.902865
0.901999
0.900931
0.899596
0.898106
0.896404
0.894692
0.890803
0.8849
0.882634
0.880806
0.877092
0.874077
0.87124
0.868605
0.865795
0.859319
0.853768
0.849723
0.844123
0.839073
0.834444
0.829728
0.823734
0.795018
0.773575
0.759814
0.77459
0.778507
0.782827
0.786329
0.788976
0.791159
0.79313
0.7947
0.800726
0.796298
0.789501
0.783743
0.782939
0.782233
0.781444
0.780646
0.779894
0.779062
0.778097
0.777252
0.7766
0.7753
0.763588
0.746123
0.721715
0.714133
0.728609
0.727275
0.726067
0.740562
0.718085
0.692883
0.680903
0.679627
0.679257
0.678841
0.678354
0.677932
0.677555
0.677195
0.676834
0.676462
0.676067
0.675647
0.675204
0.674786
0.674697
0.67511
0.672387
0.63108
0.603028
0.561874
0.540268
0.519588
0.505417
0.497889
0.492589
0.489283
0.487556
0.486858
0.486697
0.486579
0.48556
0.484066
0.481659
0.479771
0.47714
0.477263
0.477405
0.477516
0.477617
0.477734
0.477918
0.478279
0.471129
0.464026
0.456673
0.448889
0.440807
0.432643
0.42462
0.41688
0.409544
0.402717
0.396456
0.390734
0.385461
0.380524
0.375864
0.371479
0.367433
0.363841
0.363841
0.363841
0.363842
0.363842
0.35455
0.343441
0.330635
0.315877
0.298505
0.278568
0.256497
0.232937
0.208589
0.184144
0.160302
0.137777
0.117241
0.0991559
0.0836011
0.0699212
0.0578959
0.0477132
0.0477132
0.0477133
0.0477132
0.0477132
0.0477133
0.0460673
0.0443785
0.0426503
0.0409122
0.0392012
0.0375498
0.0359787
0.0344951
0.0330917
0.0317494
0.0304409
0.0291395
0.0278275
0.0265035
0.0251812
0.0238873
0.0226384
0.0211681
0.02115
0.021137
0.0211237
0.0211047
0.0198176
0.0187352
0.017572
0.0163572
0.0151259
0.0139072
0.0127205
0.0115744
0.0104686
0.00939686
0.00834888
0.00731292
0.00627706
0.00523068
0.0041662
0.00308126
0.00198048
0.000875322
-0.000265605
-0.000260654
-0.000248369
-0.00022795
-0.000203118
-0.000176601
-0.000150073
-0.000124677
-0.000101152
-7.9915e-05
-6.11467e-05
-4.48645e-05
-3.09755e-05
-1.9315e-05
-9.66878e-06
-1.78336e-06
4.53367e-06
9.30603e-06
1.36834e-05
2.15132e-05
2.13114e-05
2.10038
2.10037
2.10036
2.10036
2.10035
2.10035
2.10035
2.10034
2.10034
2.10034
2.10034
2.10035
2.10035
2.10036
2.10036
2.10037
2.10039
2.1004
2.10042
2.10044
2.10047
2.1005
2.10053
2.10057
2.10061
2.10064
2.1007
2.10001
2.09904
2.098
2.09694
2.0959
2.09488
2.09391
2.09295
2.09202
2.09107
2.09011
2.0891
2.08805
2.08693
2.08574
2.08451
2.08325
2.08202
2.08089
2.07992
2.07903
2.079
2.079
2.07901
2.079
2.07743
2.07604
2.07464
2.07324
2.07189
2.07059
2.06932
2.06804
2.06671
2.06528
2.0637
2.06198
2.06012
2.05816
2.05614
2.05414
2.05221
2.0504
2.0504
2.0504
2.0504
2.0504
2.04228
2.0312
2.01825
2.00362
1.98722
1.96887
1.94863
1.92683
1.90393
1.88052
1.85716
1.83443
1.8129
1.79303
1.77512
1.75925
1.74519
1.73285
1.72239
1.71479
1.7148
1.71479
1.71479
1.71162
1.70677
1.70145
1.69587
1.69007
1.68398
1.67738
1.67016
1.66235
1.6541
1.64556
1.63677
1.62776
1.61878
1.60998
1.60109
1.59242
1.59306
1.59331
1.59345
1.59356
1.59366
1.59377
1.5939
1.59407
1.5942
1.59084
1.58956
1.58839
1.59036
1.59235
1.59434
1.59605
1.59691
1.59665
1.59883
1.58978
1.56922
1.57143
1.49296
1.44577
1.44197
1.43936
1.4372
1.43553
1.43416
1.4331
1.43231
1.4317
1.43121
1.43081
1.43049
1.43022
1.43002
1.42984
1.42962
1.42944
1.42905
1.41201
1.38612
1.38445
1.37739
1.38002
1.38137
1.38458
1.3801
1.37215
1.36343
1.3662
1.33999
1.32595
1.32535
1.3245
1.32335
1.32246
1.32171
1.32097
1.32024
1.31961
1.31913
1.31855
1.31284
1.31068
1.3073
1.30963
1.31126
1.31283
1.31525
1.31974
1.32721
1.32073
1.31215
1.28956
1.28512
1.28148
1.27782
1.2741
1.27035
1.26607
1.26029
1.2578
1.25963
1.23737
1.23895
1.23691
1.23395
1.23089
1.22839
1.22833
1.20905
1.21047
1.2102
1.2088
1.20788
1.20669
1.20559
1.20454
1.20368
1.20297
1.20235
1.20182
1.20137
1.20098
1.20064
1.20033
1.20004
1.19973
1.1994
1.19904
1.19863
1.1982
1.19778
1.19732
1.19618
1.19472
1.17589
1.16193
1.14635
1.1301
1.114
1.09902
1.0863
1.07601
1.0679
1.06157
1.05655
1.05235
1.04853
1.04467
1.04031
1.03501
1.02826
1.01952
1.00818
0.993915
0.976724
0.959075
0.942227
0.929127
0.910634
0.908156
0.908473
0.908468
0.908175
0.907821
0.907472
0.907148
0.906847
0.906562
0.90628
0.905989
0.905675
0.905325
0.904929
0.904475
0.903951
0.903342
0.902625
0.901684
0.900405
0.899502
0.898265
0.898135
0.899743
0.87745
0.881839
0.885379
0.876136
0.874048
0.871658
0.87015
0.872521
0.849468
0.850864
0.847084
0.839611
0.833921
0.828811
0.822918
0.814874
0.809986
0.810033
0.791788
0.780581
0.774464
0.781758
0.786514
0.78949
0.791949
0.794612
0.791517
0.789026
0.785003
0.785688
0.785309
0.784066
0.783187
0.782452
0.781748
0.781052
0.780242
0.779202
0.77842
0.77786
0.764802
0.740189
0.740603
0.731682
0.726713
0.728257
0.727452
0.726496
0.727301
0.719997
0.71813
0.694162
0.678389
0.678043
0.677862
0.677648
0.67748
0.677286
0.677039
0.676737
0.676366
0.675907
0.675328
0.674579
0.673581
0.672402
0.671178
0.668871
0.664811
0.60637
0.524445
0.524163
0.496937
0.483338
0.483111
0.480248
0.479371
0.480137
0.481737
0.483714
0.485957
0.48519
0.484568
0.480547
0.476932
0.477083
0.477268
0.477411
0.477519
0.477622
0.477754
0.477943
0.47801
0.472278
0.465991
0.458432
0.450052
0.441227
0.432303
0.423667
0.415411
0.407663
0.400599
0.394313
0.388748
0.383714
0.378978
0.374459
0.370177
0.366321
0.363844
0.363842
0.363842
0.363842
0.35678
0.347079
0.335645
0.322614
0.307866
0.291198
0.272656
0.252521
0.23123
0.209297
0.187263
0.16567
0.145047
0.12585
0.108385
0.0927264
0.0787007
0.0662358
0.0555481
0.0477131
0.0477133
0.0477132
0.047713
0.0477129
0.0460672
0.0443291
0.042521
0.0406961
0.0389111
0.0372137
0.0356314
0.0341722
0.0328244
0.0315559
0.0303214
0.0290754
0.0277893
0.0264602
0.0251149
0.0237943
0.0225755
0.0211696
0.0211457
0.0211372
0.0211279
0.0211032
0.0198409
0.0187553
0.0175481
0.0162802
0.0150022
0.0137515
0.0125518
0.0114118
0.0103275
0.00928763
0.00827666
0.00727778
0.00627401
0.00524954
0.00419184
0.00309549
0.0019666
0.000824719
-0.000319991
-0.000302639
-0.000282671
-0.000254146
-0.000221783
-0.000189295
-0.000158392
-0.000129981
-0.00010453
-8.21825e-05
-6.28786e-05
-4.64397e-05
-3.26233e-05
-2.11539e-05
-1.17357e-05
-4.05398e-06
2.13758e-06
6.91917e-06
1.14398e-05
1.94162e-05
1.99309e-05
2.10038
2.10037
2.10036
2.10036
2.10035
2.10035
2.10035
2.10034
2.10034
2.10034
2.10034
2.10035
2.10035
2.10035
2.10036
2.10037
2.10038
2.1004
2.10042
2.10044
2.10047
2.1005
2.10054
2.10059
2.10065
2.10071
2.10083
2.10035
2.09929
2.09814
2.09699
2.09589
2.09487
2.0939
2.09299
2.0921
2.09121
2.09029
2.08933
2.0883
2.08718
2.08595
2.08464
2.08327
2.08192
2.08068
2.07963
2.07893
2.07898
2.079
2.07901