# Field minima and maxima
# Time        	field         	min           	location(min) 	processor     	max           	location(max) 	processor     
1.199999e-09  	T             	7.727921e+02	(5.000000e-07 5.000000e-07 5.000000e-07)	0	7.730000e+02	(2.650000e-05 3.050000e-05 5.000000e-07)	0
2.639996e-09  	T             	7.726234e+02	(5.000000e-07 5.000000e-07 5.000000e-07)	0	7.730000e+02	(3.315000e-04 8.750000e-05 5.000000e-07)	6
4.367991e-09  	T             	7.724959e+02	(5.000000e-07 5.000000e-07 5.000000e-07)	0	7.730000e+02	(2.355000e-04 2.250000e-05 5.000000e-07)	4
6.441582e-09  	T             	7.723951e+02	(5.000000e-07 5.000000e-07 5.000000e-07)	0	7.730000e+02	(2.705000e-04 8.350000e-05 5.000000e-07)	6
8.92989e-09   	T             	7.723046e+02	(5.000000e-07 5.000000e-07 5.000000e-07)	0	7.730000e+02	(1.255000e-04 1.315000e-04 5.000000e-07)	3
1.191586e-08  	T             	7.722168e+02	(5.000000e-07 5.000000e-07 5.000000e-07)	0	7.730000e+02	(1.255000e-04 1.315000e-04 5.000000e-07)	3
1.549901e-08  	T             	7.721326e+02	(5.000000e-07 5.000000e-07 5.000000e-07)	0	7.730000e+02	(1.385000e-04 1.205000e-04 5.000000e-07)	3
1.97988e-08   	T             	7.720572e+02	(5.000000e-07 5.000000e-07 5.000000e-07)	0	7.730000e+02	(1.395000e-04 1.205000e-04 5.000000e-07)	3
2.495853e-08  	T             	7.719969e+02	(5.000000e-07 5.000000e-07 5.000000e-07)	0	7.730000e+02	(9.050000e-05 8.950000e-05 5.000000e-07)	3
3.115017e-08  	T             	7.719571e+02	(5.000000e-07 5.000000e-07 5.000000e-07)	0	7.730000e+02	(8.950000e-05 8.950000e-05 5.000000e-07)	3
3.858013e-08  	T             	7.719417e+02	(5.000000e-07 5.000000e-07 5.000000e-07)	0	7.730000e+02	(1.605000e-04 1.750000e-05 5.000000e-07)	2
4.749602e-08  	T             	7.719446e+02	(5.000000e-07 5.150000e-05 5.000000e-07)	0	7.730000e+02	(1.435000e-04 1.165000e-04 5.000000e-07)	3
5.819505e-08  	T             	7.719649e+02	(5.000000e-07 5.150000e-05 5.000000e-07)	0	7.730000e+02	(1.395000e-04 9.450000e-05 5.000000e-07)	3
7.103374e-08  	T             	7.720083e+02	(5.000000e-07 5.150000e-05 5.000000e-07)	0	7.730000e+02	(1.405000e-04 9.450000e-05 5.000000e-07)	3
8.644002e-08  	T             	7.720351e+02	(1.500000e-06 5.150000e-05 5.000000e-07)	0	7.730000e+02	(1.905000e-04 3.450000e-05 5.000000e-07)	4
1.049275e-07  	T             	7.719867e+02	(1.500000e-06 4.750000e-05 5.000000e-07)	0	7.730000e+02	(2.285000e-04 3.850000e-05 5.000000e-07)	4
1.271124e-07  	T             	7.719658e+02	(1.500000e-06 2.050000e-05 5.000000e-07)	0	7.730033e+02	(2.250000e-05 6.250000e-05 5.000000e-07)	0
1.537338e-07  	T             	7.719538e+02	(1.500000e-06 2.500000e-06 5.000000e-07)	0	7.730059e+02	(2.250000e-05 6.250000e-05 5.000000e-07)	0
1.856788e-07  	T             	7.719593e+02	(1.500000e-06 1.475000e-04 5.000000e-07)	1	7.730054e+02	(2.150000e-05 5.950000e-05 5.000000e-07)	0
2.240123e-07  	T             	7.719650e+02	(1.500000e-06 1.475000e-04 5.000000e-07)	1	7.730000e+02	(3.115000e-04 1.335000e-04 5.000000e-07)	6
2.700107e-07  	T             	7.719719e+02	(2.500000e-06 1.475000e-04 5.000000e-07)	1	7.730000e+02	(3.105000e-04 1.335000e-04 5.000000e-07)	6
3.252078e-07  	T             	7.719385e+02	(2.500000e-06 1.465000e-04 5.000000e-07)	1	7.730000e+02	(2.505000e-04 7.950000e-05 5.000000e-07)	5
3.914421e-07  	T             	7.719228e+02	(2.500000e-06 7.550000e-05 5.000000e-07)	0	7.730051e+02	(8.450000e-05 5.250000e-05 5.000000e-07)	2
4.709212e-07  	T             	7.719296e+02	(2.500000e-06 4.500000e-06 5.000000e-07)	0	7.730014e+02	(8.450000e-05 5.250000e-05 5.000000e-07)	2
5.662961e-07  	T             	7.719391e+02	(3.500000e-06 4.500000e-06 5.000000e-07)	0	7.730000e+02	(1.885000e-04 6.250000e-05 5.000000e-07)	4
6.807395e-07  	T             	7.719315e+02	(3.500000e-06 4.500000e-06 5.000000e-07)	0	7.730001e+02	(1.965000e-04 4.650000e-05 5.000000e-07)	4
8.180652e-07  	T             	7.719377e+02	(3.500000e-06 5.500000e-06 5.000000e-07)	0	7.730001e+02	(1.965000e-04 4.650000e-05 5.000000e-07)	4
9.82838e-07   	T             	7.719377e+02	(4.500000e-06 5.500000e-06 5.000000e-07)	0	7.730002e+02	(1.965000e-04 4.650000e-05 5.000000e-07)	4
1.180546e-06  	T             	7.719314e+02	(4.500000e-06 6.500000e-06 5.000000e-07)	0	7.730004e+02	(2.905000e-04 3.650000e-05 5.000000e-07)	7
1.417795e-06  	T             	7.719401e+02	(5.500000e-06 1.435000e-04 5.000000e-07)	1	7.730012e+02	(2.655000e-04 3.650000e-05 5.000000e-07)	7
1.701644e-06  	T             	7.719391e+02	(5.500000e-06 1.425000e-04 5.000000e-07)	1	7.730024e+02	(2.295000e-04 1.245000e-04 5.000000e-07)	5
2.02917e-06   	T             	7.719562e+02	(6.500000e-06 1.425000e-04 5.000000e-07)	1	7.730041e+02	(2.050000e-05 5.250000e-05 5.000000e-07)	0
2.399063e-06  	T             	7.719661e+02	(6.500000e-06 1.415000e-04 5.000000e-07)	1	7.730121e+02	(2.050000e-05 5.250000e-05 5.000000e-07)	0
2.811465e-06  	T             	7.719851e+02	(7.500000e-06 1.405000e-04 5.000000e-07)	1	7.730273e+02	(2.050000e-05 5.250000e-05 5.000000e-07)	0
3.248637e-06  	T             	7.719982e+02	(7.500000e-06 1.395000e-04 5.000000e-07)	1	7.730515e+02	(2.050000e-05 5.250000e-05 5.000000e-07)	0
3.714626e-06  	T             	7.720129e+02	(8.500000e-06 1.395000e-04 5.000000e-07)	1	7.730874e+02	(2.050000e-05 5.250000e-05 5.000000e-07)	0
4.222935e-06  	T             	7.720240e+02	(8.500000e-06 1.385000e-04 5.000000e-07)	1	7.731387e+02	(2.050000e-05 5.250000e-05 5.000000e-07)	0
4.781732e-06  	T             	7.720342e+02	(9.500000e-06 1.385000e-04 5.000000e-07)	1	7.732088e+02	(2.050000e-05 5.250000e-05 5.000000e-07)	0
5.404133e-06  	T             	7.720426e+02	(9.500000e-06 1.375000e-04 5.000000e-07)	1	7.733019e+02	(2.050000e-05 5.250000e-05 5.000000e-07)	0
6.098683e-06  	T             	7.720482e+02	(1.050000e-05 1.375000e-04 5.000000e-07)	1	7.734212e+02	(2.050000e-05 5.250000e-05 5.000000e-07)	0
6.876384e-06  	T             	7.720544e+02	(1.150000e-05 1.365000e-04 5.000000e-07)	1	7.735693e+02	(2.050000e-05 5.250000e-05 5.000000e-07)	0
7.750612e-06  	T             	7.720562e+02	(1.150000e-05 1.355000e-04 5.000000e-07)	1	7.737480e+02	(2.050000e-05 5.250000e-05 5.000000e-07)	0
8.735964e-06  	T             	7.720581e+02	(1.250000e-05 1.355000e-04 5.000000e-07)	1	7.739581e+02	(2.050000e-05 5.250000e-05 5.000000e-07)	0
9.850997e-06  	T             	7.720600e+02	(1.350000e-05 1.345000e-04 5.000000e-07)	1	7.741995e+02	(2.050000e-05 5.250000e-05 5.000000e-07)	0
1.111717e-05  	T             	7.720617e+02	(1.350000e-05 1.335000e-04 5.000000e-07)	1	7.744709e+02	(2.050000e-05 5.250000e-05 5.000000e-07)	0
1.255242e-05  	T             	7.720628e+02	(1.450000e-05 1.325000e-04 5.000000e-07)	1	7.747687e+02	(2.050000e-05 5.250000e-05 5.000000e-07)	0
1.418187e-05  	T             	7.720644e+02	(1.550000e-05 1.325000e-04 5.000000e-07)	1	7.750891e+02	(2.050000e-05 5.250000e-05 5.000000e-07)	0
1.603491e-05  	T             	7.720664e+02	(1.650000e-05 1.315000e-04 5.000000e-07)	1	7.754274e+02	(2.050000e-05 5.250000e-05 5.000000e-07)	0
1.814642e-05  	T             	7.720687e+02	(1.750000e-05 1.315000e-04 5.000000e-07)	1	7.757788e+02	(2.050000e-05 5.250000e-05 5.000000e-07)	0
2.055884e-05  	T             	7.720714e+02	(1.850000e-05 1.315000e-04 5.000000e-07)	1	7.761383e+02	(2.050000e-05 5.250000e-05 5.000000e-07)	0
2.333346e-05  	T             	7.720517e+02	(2.450000e-05 5.000000e-07 5.000000e-07)	0	7.765019e+02	(2.050000e-05 5.250000e-05 5.000000e-07)	0
2.654618e-05  	T             	7.720123e+02	(2.450000e-05 5.000000e-07 5.000000e-07)	0	7.768652e+02	(2.050000e-05 5.250000e-05 5.000000e-07)	0
3.030469e-05  	T             	7.719979e+02	(2.450000e-05 5.000000e-07 5.000000e-07)	0	7.772247e+02	(2.050000e-05 5.250000e-05 5.000000e-07)	0
3.479402e-05  	T             	7.719690e+02	(2.450000e-05 5.350000e-05 5.000000e-07)	0	7.775791e+02	(2.050000e-05 5.250000e-05 5.000000e-07)	0
4.015627e-05  	T             	7.718897e+02	(2.550000e-05 5.350000e-05 5.000000e-07)	0	7.779198e+02	(2.050000e-05 5.250000e-05 5.000000e-07)	0
4.655523e-05  	T             	7.718209e+02	(2.550000e-05 5.250000e-05 5.000000e-07)	0	7.782385e+02	(2.050000e-05 5.250000e-05 5.000000e-07)	0
5.418279e-05  	T             	7.717503e+02	(2.650000e-05 5.150000e-05 5.000000e-07)	0	7.785284e+02	(2.050000e-05 5.250000e-05 5.000000e-07)	0
6.327719e-05  	T             	7.716935e+02	(2.650000e-05 5.150000e-05 5.000000e-07)	0	7.787848e+02	(2.050000e-05 5.250000e-05 5.000000e-07)	0
7.324232e-05  	T             	7.716235e+02	(2.750000e-05 5.150000e-05 5.000000e-07)	0	7.789919e+02	(2.050000e-05 5.250000e-05 5.000000e-07)	0
8.320746e-05  	T             	7.715731e+02	(2.850000e-05 5.150000e-05 5.000000e-07)	0	7.791473e+02	(2.050000e-05 5.250000e-05 5.000000e-07)	0
9.117957e-05  	T             	7.715320e+02	(2.850000e-05 5.150000e-05 5.000000e-07)	0	7.793104e+02	(2.350000e-05 6.550000e-05 5.000000e-07)	0
9.817049e-05  	T             	7.715031e+02	(2.950000e-05 5.150000e-05 5.000000e-07)	0	7.794668e+02	(2.350000e-05 6.550000e-05 5.000000e-07)	0
0.0001045664  	T             	7.714712e+02	(2.950000e-05 5.150000e-05 5.000000e-07)	0	7.795921e+02	(2.350000e-05 6.550000e-05 5.000000e-07)	0
0.000110536   	T             	7.714494e+02	(2.950000e-05 5.150000e-05 5.000000e-07)	0	7.796960e+02	(2.350000e-05 6.550000e-05 5.000000e-07)	0
0.0001162377  	T             	7.714304e+02	(3.050000e-05 5.150000e-05 5.000000e-07)	0	7.797853e+02	(2.350000e-05 6.550000e-05 5.000000e-07)	0
0.000121693   	T             	7.714081e+02	(3.050000e-05 5.150000e-05 5.000000e-07)	0	7.798629e+02	(2.350000e-05 6.550000e-05 5.000000e-07)	0
0.000126984   	T             	7.713913e+02	(3.050000e-05 5.150000e-05 5.000000e-07)	0	7.799319e+02	(2.350000e-05 6.550000e-05 5.000000e-07)	0
0.0001321194  	T             	7.713794e+02	(3.050000e-05 5.150000e-05 5.000000e-07)	0	7.799936e+02	(2.350000e-05 6.550000e-05 5.000000e-07)	0
0.0001370227  	T             	7.713652e+02	(3.150000e-05 5.150000e-05 5.000000e-07)	0	7.800485e+02	(2.350000e-05 6.550000e-05 5.000000e-07)	0
0.000141926   	T             	7.713507e+02	(3.150000e-05 5.150000e-05 5.000000e-07)	0	7.800998e+02	(2.350000e-05 6.550000e-05 5.000000e-07)	0
0.0001466667  	T             	7.713398e+02	(3.150000e-05 5.150000e-05 5.000000e-07)	0	7.801465e+02	(2.350000e-05 6.550000e-05 5.000000e-07)	0
0.0001513297  	T             	7.713319e+02	(3.150000e-05 5.150000e-05 5.000000e-07)	0	7.801899e+02	(2.350000e-05 6.550000e-05 5.000000e-07)	0
0.0001559421  	T             	7.713253e+02	(3.250000e-05 5.150000e-05 5.000000e-07)	0	7.802308e+02	(2.350000e-05 6.550000e-05 5.000000e-07)	0
0.0001605293  	T             	7.713151e+02	(3.250000e-05 5.150000e-05 5.000000e-07)	0	7.802695e+02	(2.350000e-05 6.550000e-05 5.000000e-07)	0
0.0001650426  	T             	7.713074e+02	(3.250000e-05 5.150000e-05 5.000000e-07)	0	7.803060e+02	(2.350000e-05 6.550000e-05 5.000000e-07)	0
0.0001694839  	T             	7.713021e+02	(3.250000e-05 5.150000e-05 5.000000e-07)	0	7.803405e+02	(2.350000e-05 6.550000e-05 5.000000e-07)	0
0.000173855   	T             	7.712989e+02	(3.250000e-05 5.150000e-05 5.000000e-07)	0	7.803733e+02	(2.350000e-05 6.550000e-05 5.000000e-07)	0
0.0001782729  	T             	7.712973e+02	(3.350000e-05 5.150000e-05 5.000000e-07)	0	7.804053e+02	(2.350000e-05 6.550000e-05 5.000000e-07)	0
0.0001825527  	T             	7.712923e+02	(3.350000e-05 5.150000e-05 5.000000e-07)	0	7.804354e+02	(2.350000e-05 6.550000e-05 5.000000e-07)	0
0.0001868326  	T             	7.712891e+02	(3.350000e-05 5.150000e-05 5.000000e-07)	0	7.804647e+02	(2.350000e-05 6.550000e-05 5.000000e-07)	0
0.0001910678  	T             	7.712876e+02	(3.350000e-05 5.150000e-05 5.000000e-07)	0	7.804930e+02	(2.350000e-05 6.550000e-05 5.000000e-07)	0
0.0001952592  	T             	7.712878e+02	(3.350000e-05 5.150000e-05 5.000000e-07)	0	7.805203e+02	(2.350000e-05 6.550000e-05 5.000000e-07)	0
0.0001993861  	T             	7.712895e+02	(3.350000e-05 5.150000e-05 5.000000e-07)	0	7.805468e+02	(2.350000e-05 6.550000e-05 5.000000e-07)	0
0.0002035559  	T             	7.712926e+02	(3.450000e-05 5.150000e-05 5.000000e-07)	0	7.805731e+02	(2.350000e-05 6.550000e-05 5.000000e-07)	0
0.0002076402  	T             	7.712929e+02	(3.450000e-05 5.150000e-05 5.000000e-07)	0	7.805984e+02	(2.350000e-05 6.550000e-05 5.000000e-07)	0
0.0002116829  	T             	7.712945e+02	(3.450000e-05 5.250000e-05 5.000000e-07)	0	7.806231e+02	(2.350000e-05 6.550000e-05 5.000000e-07)	0
0.0002157049  	T             	7.712973e+02	(3.450000e-05 5.250000e-05 5.000000e-07)	0	7.807034e+02	(4.350000e-05 3.050000e-05 5.000000e-07)	0
0.000219727   	T             	7.713015e+02	(3.450000e-05 5.250000e-05 5.000000e-07)	0	7.808168e+02	(4.350000e-05 3.050000e-05 5.000000e-07)	0
0.0002237284  	T             	7.713069e+02	(3.450000e-05 5.250000e-05 5.000000e-07)	0	7.809278e+02	(4.350000e-05 3.050000e-05 5.000000e-07)	0
0.0002277092  	T             	7.713135e+02	(3.450000e-05 5.250000e-05 5.000000e-07)	0	7.810365e+02	(4.350000e-05 3.050000e-05 5.000000e-07)	0
0.0002316901  	T             	7.713214e+02	(3.450000e-05 5.250000e-05 5.000000e-07)	0	7.811451e+02	(4.450000e-05 3.150000e-05 5.000000e-07)	0
0.0002356101  	T             	7.713270e+02	(3.550000e-05 5.250000e-05 5.000000e-07)	0	7.812526e+02	(4.450000e-05 3.150000e-05 5.000000e-07)	0
0.00023953    	T             	7.713337e+02	(3.550000e-05 5.250000e-05 5.000000e-07)	0	7.813656e+02	(6.350000e-05 6.650000e-05 5.000000e-07)	0
0.00024341    	T             	7.713415e+02	(3.550000e-05 5.250000e-05 5.000000e-07)	0	7.815998e+02	(6.350000e-05 6.650000e-05 5.000000e-07)	0
0.0002472899  	T             	7.713504e+02	(3.550000e-05 5.250000e-05 5.000000e-07)	0	7.818343e+02	(6.350000e-05 6.650000e-05 5.000000e-07)	0
0.0002511303  	T             	7.713603e+02	(3.550000e-05 5.250000e-05 5.000000e-07)	0	7.820667e+02	(6.350000e-05 6.650000e-05 5.000000e-07)	0
0.0002549904  	T             	7.713714e+02	(3.550000e-05 5.250000e-05 5.000000e-07)	0	7.823005e+02	(6.350000e-05 6.650000e-05 5.000000e-07)	0
0.0002587915  	T             	7.713832e+02	(3.550000e-05 5.250000e-05 5.000000e-07)	0	7.825309e+02	(6.350000e-05 6.650000e-05 5.000000e-07)	0
0.0002626122  	T             	7.713962e+02	(3.550000e-05 5.250000e-05 5.000000e-07)	0	7.827625e+02	(6.350000e-05 6.650000e-05 5.000000e-07)	0
0.0002663743  	T             	7.714099e+02	(3.650000e-05 5.250000e-05 5.000000e-07)	0	7.829905e+02	(6.350000e-05 6.650000e-05 5.000000e-07)	0
0.0002701365  	T             	7.714221e+02	(3.650000e-05 5.250000e-05 5.000000e-07)	0	7.832185e+02	(6.350000e-05 6.650000e-05 5.000000e-07)	0
0.0002739182  	T             	7.714354e+02	(3.650000e-05 5.250000e-05 5.000000e-07)	0	7.834474e+02	(6.350000e-05 6.650000e-05 5.000000e-07)	0
0.0002776227  	T             	7.714493e+02	(3.650000e-05 5.250000e-05 5.000000e-07)	0	7.836736e+02	(6.450000e-05 6.650000e-05 5.000000e-07)	0
0.0002813656  	T             	7.714644e+02	(3.650000e-05 5.250000e-05 5.000000e-07)	0	7.839038e+02	(6.450000e-05 6.650000e-05 5.000000e-07)	0
0.0002850509  	T             	7.714800e+02	(3.650000e-05 5.250000e-05 5.000000e-07)	0	7.841302e+02	(6.450000e-05 6.650000e-05 5.000000e-07)	0
0.0002887362  	T             	7.714966e+02	(3.650000e-05 5.250000e-05 5.000000e-07)	0	7.843563e+02	(6.450000e-05 6.650000e-05 5.000000e-07)	0
0.0002923837  	T             	7.715139e+02	(3.650000e-05 5.250000e-05 5.000000e-07)	0	7.845798e+02	(6.450000e-05 6.650000e-05 5.000000e-07)	0
0.0002960501  	T             	7.715321e+02	(3.650000e-05 5.250000e-05 5.000000e-07)	0	7.848040e+02	(6.450000e-05 6.650000e-05 5.000000e-07)	0
0.0002996787  	T             	7.715510e+02	(3.650000e-05 5.250000e-05 5.000000e-07)	0	7.850256e+02	(6.450000e-05 6.650000e-05 5.000000e-07)	0
0.0003033262  	T             	7.715708e+02	(3.650000e-05 5.250000e-05 5.000000e-07)	0	7.852478e+02	(6.450000e-05 6.650000e-05 5.000000e-07)	0
0.0003069359  	T             	7.715912e+02	(3.650000e-05 5.250000e-05 5.000000e-07)	0	7.854673e+02	(6.450000e-05 6.650000e-05 5.000000e-07)	0
0.0003105645  	T             	7.716126e+02	(3.650000e-05 5.250000e-05 5.000000e-07)	0	7.856874e+02	(6.450000e-05 6.650000e-05 5.000000e-07)	0
0.0003141367  	T             	7.716331e+02	(3.750000e-05 5.250000e-05 5.000000e-07)	0	7.859036e+02	(6.450000e-05 6.650000e-05 5.000000e-07)	0
0.0003177089  	T             	7.716540e+02	(3.750000e-05 5.250000e-05 5.000000e-07)	0	7.861191e+02	(6.450000e-05 6.650000e-05 5.000000e-07)	0
0.0003212811  	T             	7.716756e+02	(3.750000e-05 5.250000e-05 5.000000e-07)	0	7.863341e+02	(6.450000e-05 6.650000e-05 5.000000e-07)	0
0.0003248346  	T             	7.716979e+02	(3.750000e-05 5.250000e-05 5.000000e-07)	0	7.865473e+02	(6.450000e-05 6.650000e-05 5.000000e-07)	0
0.0003283695  	T             	7.717208e+02	(3.750000e-05 5.250000e-05 5.000000e-07)	0	7.867588e+02	(6.450000e-05 6.650000e-05 5.000000e-07)	0
0.0003319231  	T             	7.717446e+02	(3.750000e-05 5.250000e-05 5.000000e-07)	0	7.869707e+02	(6.450000e-05 6.650000e-05 5.000000e-07)	0
0.0003354393  	T             	7.717689e+02	(3.750000e-05 5.250000e-05 5.000000e-07)	0	7.871796e+02	(6.450000e-05 6.650000e-05 5.000000e-07)	0
0.0003389555  	T             	7.717939e+02	(3.750000e-05 5.250000e-05 5.000000e-07)	0	7.873879e+02	(6.450000e-05 6.650000e-05 5.000000e-07)	0
0.0003424347  	T             	7.718193e+02	(3.750000e-05 5.250000e-05 5.000000e-07)	0	7.875932e+02	(6.450000e-05 6.650000e-05 5.000000e-07)	0
0.0003459324  	T             	7.718455e+02	(3.750000e-05 5.250000e-05 5.000000e-07)	0	7.877989e+02	(6.450000e-05 6.650000e-05 5.000000e-07)	0
0.0003493931  	T             	7.718722e+02	(3.750000e-05 5.250000e-05 5.000000e-07)	0	7.880041e+02	(6.550000e-05 6.650000e-05 5.000000e-07)	0
0.0003528538  	T             	7.718995e+02	(3.750000e-05 5.250000e-05 5.000000e-07)	0	7.882086e+02	(6.550000e-05 6.650000e-05 5.000000e-07)	0
0.000356296   	T             	7.719273e+02	(3.750000e-05 5.250000e-05 5.000000e-07)	0	7.884113e+02	(6.550000e-05 6.650000e-05 5.000000e-07)	0
0.0003597383  	T             	7.719558e+02	(3.750000e-05 5.250000e-05 5.000000e-07)	0	7.886132e+02	(6.550000e-05 6.650000e-05 5.000000e-07)	0
0.0003631806  	T             	7.719849e+02	(3.750000e-05 5.250000e-05 5.000000e-07)	0	7.888142e+02	(6.550000e-05 6.650000e-05 5.000000e-07)	0
0.0003666043  	T             	7.720145e+02	(3.750000e-05 5.250000e-05 5.000000e-07)	0	7.890133e+02	(6.550000e-05 6.650000e-05 5.000000e-07)	0
0.0003700281  	T             	7.720202e+02	(7.650000e-05 1.345000e-04 5.000000e-07)	1	7.892116e+02	(6.550000e-05 6.650000e-05 5.000000e-07)	0
0.000373415   	T             	7.720170e+02	(7.650000e-05 1.345000e-04 5.000000e-07)	1	7.894070e+02	(6.550000e-05 6.650000e-05 5.000000e-07)	0
0.000376802   	T             	7.720140e+02	(7.650000e-05 1.345000e-04 5.000000e-07)	1	7.896014e+02	(6.550000e-05 6.650000e-05 5.000000e-07)	0
0.0003801706  	T             	7.720113e+02	(7.650000e-05 1.345000e-04 5.000000e-07)	1	7.897940e+02	(6.550000e-05 6.650000e-05 5.000000e-07)	0
0.0003835392  	T             	7.720088e+02	(7.650000e-05 1.345000e-04 5.000000e-07)	1	7.899858e+02	(6.550000e-05 6.650000e-05 5.000000e-07)	0
0.0003868896  	T             	7.720056e+02	(7.750000e-05 1.345000e-04 5.000000e-07)	1	7.901756e+02	(6.550000e-05 6.650000e-05 5.000000e-07)	0
0.0003902399  	T             	7.720022e+02	(7.750000e-05 1.345000e-04 5.000000e-07)	1	7.903645e+02	(6.550000e-05 6.650000e-05 5.000000e-07)	0
0.0003935719  	T             	7.719989e+02	(7.750000e-05 1.345000e-04 5.000000e-07)	1	7.905516e+02	(6.550000e-05 6.650000e-05 5.000000e-07)	0
0.0003969039  	T             	7.719959e+02	(7.750000e-05 1.345000e-04 5.000000e-07)	1	7.907378e+02	(6.550000e-05 6.650000e-05 5.000000e-07)	0
0.0004002177  	T             	7.719931e+02	(7.750000e-05 1.345000e-04 5.000000e-07)	1	7.909221e+02	(6.550000e-05 6.650000e-05 5.000000e-07)	0
0.0004035314  	T             	7.719904e+02	(7.750000e-05 1.345000e-04 5.000000e-07)	1	7.911054e+02	(6.550000e-05 6.650000e-05 5.000000e-07)	0
0.0004068268  	T             	7.719880e+02	(7.750000e-05 1.345000e-04 5.000000e-07)	1	7.912869e+02	(6.550000e-05 6.650000e-05 5.000000e-07)	0
0.0004101222  	T             	7.719858e+02	(7.750000e-05 1.345000e-04 5.000000e-07)	1	7.914676e+02	(6.550000e-05 6.650000e-05 5.000000e-07)	0
0.0004133993  	T             	7.719838e+02	(7.750000e-05 1.345000e-04 5.000000e-07)	1	7.916463e+02	(6.550000e-05 6.650000e-05 5.000000e-07)	0
0.0004166764  	T             	7.719819e+02	(7.750000e-05 1.345000e-04 5.000000e-07)	1	7.918241e+02	(6.550000e-05 6.650000e-05 5.000000e-07)	0
0.0004199352  	T             	7.719803e+02	(7.750000e-05 1.345000e-04 5.000000e-07)	1	7.920001e+02	(6.550000e-05 6.650000e-05 5.000000e-07)	0
0.000423194   	T             	7.719779e+02	(7.850000e-05 1.345000e-04 5.000000e-07)	1	7.921752e+02	(6.550000e-05 6.650000e-05 5.000000e-07)	0
0.0004264345  	T             	7.719754e+02	(7.850000e-05 1.345000e-04 5.000000e-07)	1	7.923484e+02	(6.550000e-05 6.650000e-05 5.000000e-07)	0
0.0004296749  	T             	7.719731e+02	(7.850000e-05 1.345000e-04 5.000000e-07)	1	7.925207e+02	(6.550000e-05 6.650000e-05 5.000000e-07)	0
0.0004328971  	T             	7.719710e+02	(7.850000e-05 1.345000e-04 5.000000e-07)	1	7.926912e+02	(6.550000e-05 6.650000e-05 5.000000e-07)	0
0.0004361193  	T             	7.719690e+02	(7.850000e-05 1.345000e-04 5.000000e-07)	1	7.928608e+02	(6.550000e-05 6.650000e-05 5.000000e-07)	0
0.0004393232  	T             	7.719672e+02	(7.850000e-05 1.345000e-04 5.000000e-07)	1	7.930285e+02	(6.550000e-05 6.650000e-05 5.000000e-07)	0
0.000442527   	T             	7.719656e+02	(7.850000e-05 1.345000e-04 5.000000e-07)	1	7.931954e+02	(6.550000e-05 6.650000e-05 5.000000e-07)	0
0.0004457126  	T             	7.719641e+02	(7.850000e-05 1.345000e-04 5.000000e-07)	1	7.933605e+02	(6.550000e-05 6.650000e-05 5.000000e-07)	0
0.0004488981  	T             	7.719628e+02	(7.850000e-05 1.345000e-04 5.000000e-07)	1	7.935247e+02	(6.550000e-05 6.650000e-05 5.000000e-07)	0
0.0004520654  	T             	7.719616e+02	(7.850000e-05 1.345000e-04 5.000000e-07)	1	7.936871e+02	(6.550000e-05 6.650000e-05 5.000000e-07)	0
0.0004552326  	T             	7.719606e+02	(7.850000e-05 1.345000e-04 5.000000e-07)	1	7.938486e+02	(6.550000e-05 6.650000e-05 5.000000e-07)	0
0.0004583816  	T             	7.719596e+02	(7.950000e-05 1.345000e-04 5.000000e-07)	1	7.940083e+02	(6.550000e-05 6.650000e-05 5.000000e-07)	0
0.0004615305  	T             	7.719579e+02	(7.950000e-05 1.345000e-04 5.000000e-07)	1	7.941673e+02	(6.550000e-05 6.650000e-05 5.000000e-07)	0
0.0004646795  	T             	7.719562e+02	(7.950000e-05 1.355000e-04 5.000000e-07)	1	7.943253e+02	(6.550000e-05 6.650000e-05 5.000000e-07)	0
0.00046781    	T             	7.719547e+02	(7.950000e-05 1.355000e-04 5.000000e-07)	1	7.944816e+02	(6.550000e-05 6.650000e-05 5.000000e-07)	0
0.0004709405  	T             	7.719533e+02	(7.950000e-05 1.355000e-04 5.000000e-07)	1	7.946371e+02	(6.550000e-05 6.650000e-05 5.000000e-07)	0
0.0004740527  	T             	7.719520e+02	(7.950000e-05 1.355000e-04 5.000000e-07)	1	7.947908e+02	(6.550000e-05 6.650000e-05 5.000000e-07)	0
0.0004771648  	T             	7.719508e+02	(7.950000e-05 1.355000e-04 5.000000e-07)	1	7.949437e+02	(6.550000e-05 6.650000e-05 5.000000e-07)	0
0.0004802585  	T             	7.719498e+02	(7.950000e-05 1.355000e-04 5.000000e-07)	1	7.950948e+02	(6.550000e-05 6.650000e-05 5.000000e-07)	0
0.0004833522  	T             	7.719490e+02	(7.950000e-05 1.355000e-04 5.000000e-07)	1	7.952452e+02	(6.550000e-05 6.650000e-05 5.000000e-07)	0
0.0004864459  	T             	7.719482e+02	(7.950000e-05 1.355000e-04 5.000000e-07)	1	7.953947e+02	(6.550000e-05 6.650000e-05 5.000000e-07)	0
0.000489521   	T             	7.719476e+02	(7.950000e-05 1.355000e-04 5.000000e-07)	1	7.955425e+02	(6.550000e-05 6.650000e-05 5.000000e-07)	0
0.0004925778  	T             	7.719472e+02	(7.950000e-05 1.355000e-04 5.000000e-07)	1	7.956887e+02	(6.550000e-05 6.650000e-05 5.000000e-07)	0
0.0004956531  	T             	7.719468e+02	(7.950000e-05 1.355000e-04 5.000000e-07)	1	7.958349e+02	(6.550000e-05 6.650000e-05 5.000000e-07)	0
0.0004987097  	T             	7.719460e+02	(8.050000e-05 1.355000e-04 5.000000e-07)	1	7.959795e+02	(6.550000e-05 6.650000e-05 5.000000e-07)	0
0.0005017664  	T             	7.719450e+02	(8.050000e-05 1.355000e-04 5.000000e-07)	1	7.961233e+02	(6.550000e-05 6.650000e-05 5.000000e-07)	0
0.000504823   	T             	7.719440e+02	(8.050000e-05 1.355000e-04 5.000000e-07)	1	7.962663e+02	(6.550000e-05 6.650000e-05 5.000000e-07)	0
0.0005078609  	T             	7.719433e+02	(8.050000e-05 1.355000e-04 5.000000e-07)	1	7.964077e+02	(6.550000e-05 6.650000e-05 5.000000e-07)	0
0.0005108988  	T             	7.719426e+02	(8.050000e-05 1.355000e-04 5.000000e-07)	1	7.965483e+02	(6.550000e-05 6.650000e-05 5.000000e-07)	0
0.000513918   	T             	7.719420e+02	(8.050000e-05 1.355000e-04 5.000000e-07)	1	7.966873e+02	(6.550000e-05 6.650000e-05 5.000000e-07)	0
0.0005169371  	T             	7.719416e+02	(8.050000e-05 1.355000e-04 5.000000e-07)	1	7.968255e+02	(6.550000e-05 6.650000e-05 5.000000e-07)	0
0.0005199375  	T             	7.719412e+02	(8.050000e-05 1.365000e-04 5.000000e-07)	1	7.969621e+02	(6.550000e-05 6.650000e-05 5.000000e-07)	0
0.0005229193  	T             	7.719409e+02	(8.050000e-05 1.365000e-04 5.000000e-07)	1	7.970971e+02	(6.550000e-05 6.650000e-05 5.000000e-07)	0
0.0005259198  	T             	7.719407e+02	(8.050000e-05 1.365000e-04 5.000000e-07)	1	7.972322e+02	(6.550000e-05 6.650000e-05 5.000000e-07)	0
0.0005289014  	T             	7.719406e+02	(8.050000e-05 1.365000e-04 5.000000e-07)	1	7.973658e+02	(6.550000e-05 6.650000e-05 5.000000e-07)	0
0.0005318643  	T             	7.719406e+02	(8.050000e-05 1.365000e-04 5.000000e-07)	1	7.974979e+02	(6.550000e-05 6.650000e-05 5.000000e-07)	0
0.0005348652  	T             	7.719407e+02	(8.050000e-05 1.365000e-04 5.000000e-07)	1	7.976308e+02	(6.550000e-05 6.650000e-05 5.000000e-07)	0
0.0005378278  	T             	7.719403e+02	(8.150000e-05 1.365000e-04 5.000000e-07)	1	7.977614e+02	(6.550000e-05 6.650000e-05 5.000000e-07)	0
0.0005408096  	T             	7.719398e+02	(8.150000e-05 1.365000e-04 5.000000e-07)	1	7.978922e+02	(6.550000e-05 6.650000e-05 5.000000e-07)	0
0.0005437531  	T             	7.719394e+02	(8.150000e-05 1.365000e-04 5.000000e-07)	1	7.980205e+02	(6.550000e-05 6.650000e-05 5.000000e-07)	0
0.0005467157  	T             	7.719391e+02	(8.150000e-05 1.365000e-04 5.000000e-07)	1	7.981490e+02	(6.550000e-05 6.650000e-05 5.000000e-07)	0
0.0005496591  	T             	7.719389e+02	(8.150000e-05 1.365000e-04 5.000000e-07)	1	7.982760e+02	(6.550000e-05 6.650000e-05 5.000000e-07)	0
0.0005526025  	T             	7.719388e+02	(8.150000e-05 1.365000e-04 5.000000e-07)	1	7.984023e+02	(6.550000e-05 6.650000e-05 5.000000e-07)	0
0.0005555267  	T             	7.719388e+02	(8.150000e-05 1.365000e-04 5.000000e-07)	1	7.985271e+02	(6.550000e-05 6.650000e-05 5.000000e-07)	0
0.0005584318  	T             	7.719389e+02	(8.150000e-05 1.365000e-04 5.000000e-07)	1	7.986504e+02	(6.550000e-05 6.650000e-05 5.000000e-07)	0
0.000561356   	T             	7.719391e+02	(8.150000e-05 1.365000e-04 5.000000e-07)	1	7.987739e+02	(6.550000e-05 6.650000e-05 5.000000e-07)	0
0.000564261   	T             	7.719393e+02	(8.150000e-05 1.365000e-04 5.000000e-07)	1	7.988959e+02	(6.550000e-05 6.650000e-05 5.000000e-07)	0
0.0005671854  	T             	7.719397e+02	(8.150000e-05 1.365000e-04 5.000000e-07)	1	7.990181e+02	(6.550000e-05 6.650000e-05 5.000000e-07)	0
0.0005700902  	T             	7.719400e+02	(8.150000e-05 1.375000e-04 5.000000e-07)	1	7.991389e+02	(6.550000e-05 6.650000e-05 5.000000e-07)	0
0.000572995   	T             	7.719405e+02	(8.150000e-05 1.375000e-04 5.000000e-07)	1	7.992590e+02	(6.550000e-05 6.650000e-05 5.000000e-07)	0
0.0005758802  	T             	7.719407e+02	(8.250000e-05 1.375000e-04 5.000000e-07)	1	7.993776e+02	(6.550000e-05 6.650000e-05 5.000000e-07)	0
0.0005793283  	T             	7.719406e+02	(8.250000e-05 1.375000e-04 5.000000e-07)	1	7.995186e+02	(6.550000e-05 6.650000e-05 5.000000e-07)	0
0.0005834525  	T             	7.719407e+02	(8.250000e-05 1.375000e-04 5.000000e-07)	1	7.996859e+02	(6.550000e-05 6.650000e-05 5.000000e-07)	0
0.0005883531  	T             	7.719410e+02	(8.250000e-05 1.375000e-04 5.000000e-07)	1	7.998829e+02	(6.550000e-05 6.650000e-05 5.000000e-07)	0
0.0005942337  	T             	7.719417e+02	(8.250000e-05 1.375000e-04 5.000000e-07)	1	8.001168e+02	(6.550000e-05 6.650000e-05 5.000000e-07)	0
0.0006012297  	T             	7.719430e+02	(8.250000e-05 1.375000e-04 5.000000e-07)	1	8.003916e+02	(6.550000e-05 6.650000e-05 5.000000e-07)	0
0.0006095374  	T             	7.719451e+02	(8.250000e-05 1.385000e-04 5.000000e-07)	1	8.007131e+02	(6.550000e-05 6.650000e-05 5.000000e-07)	0
0.000619299   	T             	7.719471e+02	(8.350000e-05 1.385000e-04 5.000000e-07)	1	8.010843e+02	(6.550000e-05 6.650000e-05 5.000000e-07)	0
0.0006290606  	T             	7.719490e+02	(8.350000e-05 1.395000e-04 5.000000e-07)	1	8.014492e+02	(6.550000e-05 6.650000e-05 5.000000e-07)	0
0.0006388221  	T             	7.719515e+02	(8.350000e-05 1.395000e-04 5.000000e-07)	1	8.018080e+02	(6.550000e-05 6.650000e-05 5.000000e-07)	0
0.0006485837  	T             	7.719548e+02	(8.350000e-05 1.395000e-04 5.000000e-07)	1	8.021607e+02	(6.550000e-05 6.650000e-05 5.000000e-07)	0
0.0006583453  	T             	7.719579e+02	(8.450000e-05 1.405000e-04 5.000000e-07)	1	8.025077e+02	(6.550000e-05 6.650000e-05 5.000000e-07)	0
0.0006681068  	T             	7.719606e+02	(8.450000e-05 1.405000e-04 5.000000e-07)	1	8.028490e+02	(6.550000e-05 6.650000e-05 5.000000e-07)	0
0.0006778684  	T             	7.719640e+02	(8.450000e-05 1.405000e-04 5.000000e-07)	1	8.031849e+02	(6.550000e-05 6.650000e-05 5.000000e-07)	0
0.0006876299  	T             	7.719681e+02	(8.450000e-05 1.405000e-04 5.000000e-07)	1	8.035155e+02	(6.550000e-05 6.650000e-05 5.000000e-07)	0
0.0006973915  	T             	7.719719e+02	(8.550000e-05 1.425000e-04 5.000000e-07)	1	8.038409e+02	(6.550000e-05 6.650000e-05 5.000000e-07)	0