/*--------------------------------*- C++ -*----------------------------------*\
  =========                 |
  \\      /  F ield         | OpenFOAM: The Open Source CFD Toolbox
   \\    /   O peration     | Website:  https://openfoam.org
    \\  /    A nd           | Version:  7
     \\/     M anipulation  |
\*---------------------------------------------------------------------------*/
FoamFile
{
    version     2.0;
    format      ascii;
    class       volScalarField;
    location    "2";
    object      gradTx;
}
// * * * * * * * * * * * * * * * * * * * * * * * * * * * * * * * * * * * * * //

dimensions      [0 -1 0 1 0 0 0];

internalField   nonuniform List<scalar> 5(883.736 656.744 595.041 764.744 1099.74);

boundaryField
{
    left
    {
        type            calculated;
        value           uniform 1023.1;
    }
    right
    {
        type            calculated;
        value           uniform 1290.94;
    }
    empty
    {
        type            empty;
    }
}


// ************************************************************************* //
