/*--------------------------------*- C++ -*----------------------------------*\
  =========                 |
  \\      /  F ield         | OpenFOAM: The Open Source CFD Toolbox
   \\    /   O peration     | Website:  https://openfoam.org
    \\  /    A nd           | Version:  7
     \\/     M anipulation  |
\*---------------------------------------------------------------------------*/
FoamFile
{
    version     2.0;
    format      ascii;
    class       volScalarField;
    location    "30";
    object      C;
}
// * * * * * * * * * * * * * * * * * * * * * * * * * * * * * * * * * * * * * //

dimensions      [0 0 0 0 0 0 0];

internalField   nonuniform List<scalar> 
5625
(
0.01
0.01
0.01
0.01
0.01
0.01
0.01
0.01
0.01
0.01
0.01
0.01
0.01
0.01
0.01
0.01
0.01
0.01
0.01
0.01
0.01
0.01
0.01
0.01
0.01
0.01
0.01
0.01
0.01
0.01
0.01
0.01
0.01
0.01
0.01
0.01
0.01
0.01
0.01
0.01
0.01
0.01
0.01
0.01
0.00999999
0.00999999
0.00999999
0.00999999
0.00999999
0.00999999
0.00999998
0.00999998
0.00999998
0.00999997
0.00999997
0.00999996
0.00999996
0.00999995
0.00999995
0.00999994
0.00999993
0.00999992
0.00999991
0.0099999
0.00999989
0.00999987
0.00999986
0.00999985
0.00999983
0.00999982
0.0099998
0.00999978
0.00999977
0.00999976
0.00999975
0.01
0.01
0.01
0.01
0.01
0.01
0.01
0.01
0.01
0.01
0.01
0.01
0.01
0.01
0.01
0.01
0.01
0.01
0.01
0.01
0.01
0.01
0.01
0.01
0.01
0.01
0.01
0.01
0.01
0.01
0.01
0.01
0.01
0.01
0.01
0.01
0.01
0.01
0.01
0.01
0.01
0.01
0.01
0.01
0.00999999
0.00999999
0.00999999
0.00999999
0.00999999
0.00999999
0.00999998
0.00999998
0.00999998
0.00999997
0.00999997
0.00999996
0.00999996
0.00999995
0.00999994
0.00999994
0.00999993
0.00999992
0.00999991
0.0099999
0.00999989
0.00999987
0.00999986
0.00999985
0.00999983
0.00999981
0.0099998
0.00999978
0.00999977
0.00999975
0.00999975
0.01
0.01
0.01
0.01
0.01
0.01
0.01
0.01
0.01
0.01
0.01
0.01
0.01
0.01
0.01
0.01
0.01
0.01
0.01
0.01
0.01
0.01
0.01
0.01
0.01
0.01
0.01
0.01
0.01
0.01
0.01
0.01
0.01
0.01
0.01
0.01
0.01
0.01
0.01
0.01
0.01
0.01
0.01
0.00999999
0.00999999
0.00999999
0.00999999
0.00999999
0.00999999
0.00999998
0.00999998
0.00999998
0.00999997
0.00999997
0.00999996
0.00999996
0.00999995
0.00999995
0.00999994
0.00999993
0.00999992
0.00999991
0.0099999
0.00999989
0.00999988
0.00999987
0.00999985
0.00999984
0.00999982
0.0099998
0.00999979
0.00999977
0.00999975
0.00999974
0.00999973
0.01
0.01
0.01
0.01
0.01
0.01
0.01
0.01
0.01
0.01
0.01
0.01
0.01
0.01
0.01
0.01
0.01
0.01
0.01
0.01
0.01
0.01
0.01
0.01
0.01
0.01
0.01
0.01
0.01
0.01
0.01
0.01
0.01
0.01
0.01
0.01
0.01
0.01
0.01
0.01
0.01
0.00999999
0.00999999
0.00999999
0.00999999
0.00999999
0.00999999
0.00999998
0.00999998
0.00999998
0.00999997
0.00999997
0.00999997
0.00999996
0.00999996
0.00999995
0.00999994
0.00999994
0.00999993
0.00999992
0.00999991
0.0099999
0.00999989
0.00999988
0.00999986
0.00999985
0.00999983
0.00999982
0.0099998
0.00999978
0.00999976
0.00999974
0.00999973
0.00999971
0.0099997
0.01
0.01
0.01
0.01
0.01
0.01
0.01
0.01
0.01
0.01
0.01
0.01
0.01
0.01
0.01
0.01
0.01
0.01
0.01
0.01
0.01
0.01
0.01
0.01
0.01
0.01
0.01
0.01
0.01
0.01
0.01
0.01
0.01
0.01
0.01
0.01
0.01
0.01
0.01
0.00999999
0.00999999
0.00999999
0.00999999
0.00999999
0.00999998
0.00999998
0.00999998
0.00999998
0.00999997
0.00999997
0.00999996
0.00999996
0.00999995
0.00999995
0.00999994
0.00999993
0.00999992
0.00999992
0.00999991
0.0099999
0.00999988
0.00999987
0.00999986
0.00999985
0.00999983
0.00999982
0.0099998
0.00999978
0.00999976
0.00999974
0.00999972
0.0099997
0.00999968
0.00999966
0.00999964
0.01
0.01
0.01
0.01
0.01
0.01
0.01
0.01
0.01
0.01
0.01
0.01
0.01
0.01
0.01
0.01
0.01
0.01
0.01
0.01
0.01
0.01
0.01
0.01
0.01
0.01
0.01
0.01
0.01
0.01
0.01
0.01
0.01
0.01
0.01
0.01
0.00999999
0.00999999
0.00999999
0.00999999
0.00999999
0.00999998
0.00999998
0.00999998
0.00999997
0.00999997
0.00999996
0.00999996
0.00999995
0.00999995
0.00999994
0.00999993
0.00999993
0.00999992
0.00999991
0.0099999
0.00999989
0.00999988
0.00999987
0.00999985
0.00999984
0.00999983
0.00999981
0.00999979
0.00999978
0.00999976
0.00999974
0.00999972
0.00999969
0.00999967
0.00999964
0.00999962
0.0099996
0.00999957
0.00999956
0.01
0.01
0.01
0.01
0.01
0.01
0.01
0.01
0.01
0.01
0.01
0.01
0.01
0.01
0.01
0.01
0.01
0.01
0.01
0.01
0.01
0.01
0.01
0.01
0.01
0.01
0.01
0.01
0.01
0.01
0.01
0.01
0.01
0.00999999
0.00999999
0.00999999
0.00999999
0.00999998
0.00999998
0.00999998
0.00999997
0.00999997
0.00999996
0.00999996
0.00999995
0.00999994
0.00999993
0.00999992
0.00999992
0.00999991
0.0099999
0.00999989
0.00999988
0.00999986
0.00999985
0.00999984
0.00999983
0.00999981
0.0099998
0.00999978
0.00999976
0.00999974
0.00999972
0.0099997
0.00999968
0.00999966
0.00999964
0.00999961
0.00999958
0.00999956
0.00999953
0.0099995
0.00999947
0.00999944
0.00999942
0.01
0.01
0.01
0.01
0.01
0.01
0.01
0.01
0.01
0.01
0.01
0.01
0.01
0.01
0.01
0.01
0.01
0.01
0.01
0.01
0.01
0.01
0.01
0.01
0.01
0.01
0.01
0.01
0.01
0.01
0.01
0.00999999
0.00999999
0.00999999
0.00999998
0.00999998
0.00999997
0.00999997
0.00999996
0.00999995
0.00999994
0.00999993
0.00999992
0.00999991
0.0099999
0.00999989
0.00999987
0.00999986
0.00999985
0.00999983
0.00999982
0.0099998
0.00999978
0.00999977
0.00999975
0.00999973
0.00999971
0.0099997
0.00999968
0.00999965
0.00999963
0.00999961
0.00999958
0.00999956
0.00999953
0.0099995
0.00999947
0.00999944
0.00999941
0.00999938
0.00999934
0.00999931
0.00999927
0.00999924
0.00999922
0.01
0.01
0.01
0.01
0.01
0.01
0.01
0.01
0.01
0.01
0.01
0.01
0.01
0.01
0.01
0.01
0.01
0.01
0.01
0.01
0.01
0.01
0.01
0.01
0.01
0.01
0.01
0.01
0.01
0.00999999
0.00999999
0.00999999
0.00999998
0.00999997
0.00999996
0.00999995
0.00999994
0.00999993
0.00999991
0.00999989
0.00999988
0.00999986
0.00999984
0.00999982
0.0099998
0.00999978
0.00999975
0.00999973
0.00999971
0.00999969
0.00999966
0.00999964
0.00999962
0.00999959
0.00999957
0.00999955
0.00999952
0.0099995
0.00999947
0.00999944
0.00999942
0.00999939
0.00999936
0.00999932
0.00999929
0.00999926
0.00999922
0.00999918
0.00999914
0.0099991
0.00999906
0.00999902
0.00999897
0.00999893
0.0099989
0.01
0.01
0.01
0.01
0.01
0.01
0.01
0.01
0.01
0.01
0.01
0.01
0.01
0.01
0.01
0.01
0.01
0.01
0.01
0.01
0.01
0.01
0.01
0.01
0.01
0.01
0.01
0.01
0.00999999
0.00999999
0.00999998
0.00999997
0.00999995
0.00999993
0.00999991
0.00999989
0.00999986
0.00999983
0.0099998
0.00999977
0.00999973
0.0099997
0.00999966
0.00999962
0.00999959
0.00999955
0.00999951
0.00999948
0.00999944
0.00999941
0.00999937
0.00999934
0.00999931
0.00999928
0.00999925
0.00999922
0.00999919
0.00999915
0.00999912
0.00999909
0.00999906
0.00999902
0.00999898
0.00999894
0.0099989
0.00999886
0.00999882
0.00999877
0.00999872
0.00999867
0.00999862
0.00999857
0.00999852
0.00999847
0.00999843
0.01
0.01
0.01
0.01
0.01
0.01
0.01
0.01
0.01
0.01
0.01
0.01
0.01
0.01
0.01
0.01
0.01
0.01
0.01
0.01
0.01
0.01
0.01
0.01
0.01
0.01
0.00999999
0.00999999
0.00999998
0.00999997
0.00999995
0.00999992
0.00999989
0.00999985
0.0099998
0.00999974
0.00999968
0.00999962
0.00999956
0.00999949
0.00999943
0.00999936
0.00999929
0.00999922
0.00999916
0.00999909
0.00999904
0.00999898
0.00999893
0.00999888
0.00999883
0.00999879
0.00999875
0.00999871
0.00999867
0.00999864
0.0099986
0.00999857
0.00999853
0.0099985
0.00999846
0.00999842
0.00999838
0.00999833
0.00999828
0.00999824
0.00999818
0.00999813
0.00999807
0.00999801
0.00999795
0.00999789
0.00999783
0.00999777
0.00999773
0.01
0.01
0.01
0.01
0.01
0.01
0.01
0.01
0.01
0.01
0.01
0.01
0.01
0.01
0.01
0.01
0.01
0.01
0.01
0.01
0.01
0.01
0.01
0.01
0.01
0.00999999
0.00999998
0.00999997
0.00999995
0.00999992
0.00999987
0.00999981
0.00999973
0.00999964
0.00999953
0.0099994
0.00999928
0.00999915
0.00999902
0.00999889
0.00999876
0.00999863
0.00999851
0.00999839
0.00999828
0.00999818
0.00999809
0.00999801
0.00999794
0.00999787
0.00999782
0.00999777
0.00999773
0.00999769
0.00999766
0.00999763
0.0099976
0.00999757
0.00999754
0.00999751
0.00999747
0.00999743
0.00999739
0.00999735
0.0099973
0.00999725
0.00999719
0.00999713
0.00999707
0.009997
0.00999694
0.00999686
0.00999679
0.00999673
0.00999667
0.01
0.01
0.01
0.01
0.01
0.01
0.01
0.01
0.01
0.01
0.01
0.01
0.01
0.01
0.01
0.01
0.01
0.01
0.01
0.01
0.01
0.01
0.01
0.01
0.00999999
0.00999998
0.00999996
0.00999993
0.00999988
0.00999981
0.0099997
0.00999956
0.00999937
0.00999916
0.00999891
0.00999865
0.00999838
0.00999812
0.00999786
0.0099976
0.00999736
0.00999712
0.0099969
0.0099967
0.00999653
0.00999638
0.00999625
0.00999614
0.00999606
0.009996
0.00999595
0.00999592
0.0099959
0.00999588
0.00999588
0.00999588
0.00999588
0.00999588
0.00999587
0.00999587
0.00999586
0.00999584
0.00999582
0.00999579
0.00999575
0.00999571
0.00999566
0.0099956
0.00999554
0.00999547
0.00999539
0.00999532
0.00999524
0.00999517
0.00999511
0.01
0.01
0.01
0.01
0.01
0.01
0.01
0.01
0.01
0.01
0.01
0.01
0.01
0.01
0.01
0.01
0.01
0.01
0.01
0.01
0.01
0.01
0.00999999
0.00999999
0.00999998
0.00999995
0.00999991
0.00999983
0.00999972
0.00999954
0.0099993
0.00999897
0.00999856
0.00999808
0.00999754
0.00999697
0.00999641
0.00999588
0.00999537
0.00999488
0.00999443
0.00999401
0.00999364
0.00999332
0.00999306
0.00999286
0.00999271
0.00999261
0.00999255
0.00999254
0.00999255
0.00999259
0.00999265
0.00999273
0.00999281
0.00999289
0.00999298
0.00999306
0.00999313
0.00999319
0.00999325
0.00999329
0.00999332
0.00999333
0.00999333
0.00999332
0.00999329
0.00999325
0.0099932
0.00999314
0.00999307
0.009993
0.00999293
0.00999285
0.00999279
0.01
0.01
0.01
0.01
0.01
0.01
0.01
0.01
0.01
0.01
0.01
0.01
0.01
0.01
0.01
0.01
0.01
0.01
0.01
0.01
0.01
0.00999999
0.00999999
0.00999997
0.00999994
0.00999989
0.00999978
0.00999962
0.00999935
0.00999895
0.0099984
0.00999767
0.00999676
0.0099957
0.00999455
0.00999336
0.00999221
0.00999116
0.00999019
0.00998928
0.00998847
0.00998776
0.00998718
0.00998671
0.00998638
0.00998617
0.00998606
0.00998606
0.00998614
0.00998629
0.0099865
0.00998674
0.00998702
0.0099873
0.0099876
0.00998789
0.00998817
0.00998843
0.00998867
0.00998889
0.00998909
0.00998925
0.00998939
0.0099895
0.00998959
0.00998964
0.00998968
0.00998969
0.00998968
0.00998966
0.00998961
0.00998956
0.0099895
0.00998944
0.0099894
0.01
0.01
0.01
0.01
0.01
0.01
0.01
0.01
0.01
0.01
0.01
0.01
0.01
0.01
0.01
0.01
0.01
0.01
0.01
0.01
0.00999999
0.00999999
0.00999997
0.00999994
0.00999987
0.00999974
0.00999951
0.00999913
0.00999853
0.00999765
0.00999643
0.00999484
0.00999289
0.00999065
0.00998823
0.0099858
0.00998351
0.00998149
0.00997968
0.00997806
0.00997667
0.00997555
0.00997469
0.00997412
0.00997381
0.00997374
0.00997388
0.00997421
0.00997469
0.00997528
0.00997596
0.00997668
0.00997744
0.0099782
0.00997894
0.00997966
0.00998034
0.00998097
0.00998156
0.00998208
0.00998256
0.00998297
0.00998333
0.00998363
0.00998388
0.00998409
0.00998424
0.00998436
0.00998444
0.00998449
0.00998451
0.00998451
0.00998449
0.00998447
0.00998445
0.01
0.01
0.01
0.01
0.01
0.01
0.01
0.01
0.01
0.01
0.01
0.01
0.01
0.01
0.01
0.01
0.01
0.01
0.01
0.01
0.00999999
0.00999997
0.00999993
0.00999986
0.00999971
0.00999942
0.00999892
0.00999809
0.00999679
0.00999489
0.00999227
0.0099889
0.00998483
0.00998021
0.00997531
0.00997048
0.00996605
0.00996228
0.00995904
0.00995626
0.00995403
0.00995237
0.0099513
0.00995081
0.00995083
0.00995132
0.00995219
0.00995338
0.0099548
0.00995639
0.00995809
0.00995982
0.00996156
0.00996326
0.0099649
0.00996644
0.00996789
0.00996922
0.00997043
0.00997152
0.0099725
0.00997337
0.00997412
0.00997477
0.00997533
0.00997579
0.00997618
0.00997649
0.00997673
0.00997692
0.00997706
0.00997716
0.00997724
0.00997729
0.00997734
0.01
0.01
0.01
0.01
0.01
0.01
0.01
0.01
0.01
0.01
0.01
0.01
0.01
0.01
0.01
0.01
0.01
0.01
0.01
0.00999999
0.00999997
0.00999994
0.00999986
0.00999969
0.00999936
0.00999875
0.00999768
0.00999591
0.00999318
0.00998921
0.0099838
0.0099769
0.00996865
0.00995943
0.00994983
0.00994054
0.00993226
0.00992545
0.00991986
0.00991533
0.00991198
0.00990985
0.00990891
0.00990907
0.0099102
0.00991214
0.00991475
0.00991785
0.00992129
0.00992493
0.00992865
0.00993236
0.00993597
0.00993943
0.00994269
0.00994574
0.00994854
0.0099511
0.00995342
0.0099555
0.00995735
0.00995898
0.00996041
0.00996165
0.00996272
0.00996363
0.0099644
0.00996504
0.00996556
0.00996599
0.00996634
0.00996662
0.00996686
0.00996705
0.0099672
0.01
0.01
0.01
0.01
0.01
0.01
0.01
0.01
0.01
0.01
0.01
0.01
0.01
0.01
0.01
0.01
0.01
0.01
0.00999999
0.00999998
0.00999995
0.00999987
0.0099997
0.00999935
0.00999867
0.0099974
0.00999518
0.00999156
0.00998599
0.00997798
0.00996717
0.00995352
0.0099374
0.00991965
0.00990146
0.00988424
0.00986929
0.00985747
0.00984825
0.0098413
0.00983677
0.00983466
0.0098348
0.00983696
0.00984083
0.00984607
0.00985233
0.00985929
0.00986667
0.00987421
0.0098817
0.00988898
0.00989594
0.0099025
0.00990859
0.00991419
0.0099193
0.00992392
0.00992806
0.00993175
0.00993502
0.0099379
0.00994042
0.00994261
0.00994449
0.00994611
0.00994749
0.00994866
0.00994963
0.00995045
0.00995113
0.00995171
0.00995219
0.00995261
0.00995293
0.01
0.01
0.01
0.01
0.01
0.01
0.01
0.01
0.01
0.01
0.01
0.01
0.01
0.01
0.01
0.01
0.01
0.00999999
0.00999998
0.00999995
0.00999989
0.00999973
0.00999939
0.00999868
0.0099973
0.00999474
0.00999032
0.00998314
0.00997222
0.00995664
0.00993584
0.00990985
0.00987953
0.00984659
0.00981342
0.00978266
0.00975672
0.00973704
0.00972254
0.00971265
0.00970747
0.0097068
0.00971023
0.00971714
0.00972688
0.00973875
0.00975208
0.00976627
0.00978081
0.00979528
0.00980934
0.00982276
0.00983537
0.00984706
0.00985778
0.00986754
0.00987633
0.00988421
0.00989122
0.00989743
0.00990291
0.0099077
0.00991189
0.00991552
0.00991866
0.00992136
0.00992366
0.00992562
0.00992729
0.00992869
0.00992988
0.0099309
0.00993177
0.00993253
0.00993312
0.01
0.01
0.01
0.01
0.01
0.01
0.01
0.01
0.01
0.01
0.01
0.01
0.01
0.01
0.01
0.01
0.01
0.00999999
0.00999997
0.00999991
0.00999978
0.00999947
0.0099988
0.00999741
0.0099947
0.00998975
0.00998124
0.00996755
0.00994691
0.00991779
0.0098793
0.00983175
0.00977695
0.00971822
0.00966004
0.00960726
0.00956403
0.00953265
0.0095111
0.00949836
0.00949434
0.00949837
0.00950939
0.00952614
0.00954725
0.00957141
0.00959741
0.00962422
0.00965098
0.00967703
0.00970189
0.00972522
0.00974682
0.00976659
0.00978452
0.00980065
0.00981506
0.00982786
0.00983918
0.00984913
0.00985786
0.00986548
0.0098721
0.00987784
0.0098828
0.00988706
0.0098907
0.00989382
0.00989647
0.00989872
0.00990065
0.0099023
0.00990374
0.00990499
0.00990596
0.01
0.01
0.01
0.01
0.01
0.01
0.01
0.01
0.01
0.01
0.01
0.01
0.01
0.01
0.01
0.01
0.00999999
0.00999998
0.00999993
0.00999983
0.00999957
0.00999899
0.00999771
0.00999508
0.00998998
0.00998072
0.00996494
0.00993981
0.00990235
0.00985008
0.0097818
0.00969839
0.00960336
0.00950288
0.00940492
0.00931794
0.00924888
0.00920108
0.00917097
0.00915697
0.00915834
0.00917333
0.00919967
0.00923482
0.00927624
0.00932157
0.00936878
0.0094162
0.00946254
0.00950682
0.0095484
0.00958687
0.00962203
0.00965384
0.0096824
0.00970784
0.00973038
0.00975026
0.00976771
0.00978298
0.00979629
0.00980787
0.0098179
0.00982658
0.00983405
0.00984048
0.00984598
0.00985069
0.0098547
0.00985813
0.00986106
0.0098636
0.00986581
0.00986773
0.00986922
0.01
0.01
0.01
0.01
0.01
0.01
0.01
0.01
0.01
0.01
0.01
0.01
0.01
0.01
0.01
0.00999999
0.00999998
0.00999995
0.00999988
0.00999968
0.00999922
0.00999814
0.00999579
0.00999098
0.00998171
0.00996501
0.00993686
0.00989254
0.0098273
0.00973743
0.00962145
0.00948137
0.00932356
0.00915872
0.00900037
0.00886267
0.00875699
0.00868746
0.00864842
0.00863765
0.00865278
0.00868978
0.00874409
0.00881101
0.00888609
0.00896543
0.00904584
0.00912485
0.00920063
0.00927191
0.0093379
0.0093982
0.0094527
0.00950152
0.00954492
0.00958329
0.00961702
0.00964657
0.00967236
0.00969481
0.0097143
0.00973118
0.00974577
0.00975836
0.00976919
0.00977848
0.00978644
0.00979325
0.00979906
0.00980403
0.00980829
0.00981198
0.00981521
0.00981801
0.00982017
0.01
0.01
0.01
0.01
0.01
0.01
0.01
0.01
0.01
0.01
0.01
0.01
0.01
0.01
0.01
0.00999999
0.00999997
0.00999992
0.00999978
0.00999944
0.0099986
0.00999668
0.00999252
0.00998402
0.00996779
0.00993879
0.00989048
0.00981544
0.00970658
0.00955877
0.00937048
0.00914553
0.00889461
0.00863535
0.00838934
0.00817929
0.00802457
0.00792835
0.00788268
0.00788483
0.00792873
0.0080056
0.00810692
0.00822473
0.00835175
0.00848203
0.00861099
0.00873531
0.00885265
0.00896151
0.00906108
0.00915109
0.00923165
0.00930319
0.00936628
0.00942165
0.00947002
0.00951215
0.00954873
0.00958044
0.00960786
0.00963154
0.00965195
0.00966951
0.0096846
0.00969754
0.00970861
0.00971807
0.00972616
0.00973307
0.009739
0.00974414
0.00974862
0.00975253
0.00975553
0.01
0.01
0.01
0.01
0.01
0.01
0.01
0.01
0.01
0.01
0.01
0.01
0.01
0.01
0.00999999
0.00999998
0.00999995
0.00999986
0.00999963
0.00999903
0.00999759
0.00999429
0.00998717
0.0099727
0.00994527
0.00989678
0.00981705
0.00969512
0.00952124
0.00928902
0.00899727
0.0086521
0.00826985
0.00787834
0.00751025
0.00719868
0.00698336
0.00685882
0.00681458
0.0068472
0.00694471
0.00708818
0.00726247
0.00745575
0.0076572
0.00785844
0.00805357
0.0082386
0.0084109
0.00856893
0.00871201
0.00884018
0.00895396
0.00905423
0.00914208
0.00921868
0.00928526
0.00934295
0.00939284
0.00943591
0.00947305
0.00950503
0.00953253
0.00955616
0.00957642
0.00959377
0.00960861
0.00962128
0.0096321
0.00964135
0.00964929
0.00965615
0.00966215
0.00966737
0.00967138
0.01
0.01
0.01
0.01
0.01
0.01
0.01
0.01
0.01
0.01
0.01
0.01
0.01
0.01
0.00999999
0.00999997
0.00999992
0.00999977
0.00999938
0.00999839
0.009996
0.00999053
0.00997875
0.00995499
0.00991027
0.00983214
0.00970559
0.00951552
0.00924981
0.0089017
0.00847071
0.00796451
0.00740496
0.00683544
0.00630446
0.00584248
0.00556864
0.00542974
0.00540377
0.00548618
0.00567827
0.00592638
0.00620309
0.00649926
0.00679984
0.00709314
0.00737245
0.00763367
0.00787428
0.00809293
0.0082893
0.00846387
0.00861777
0.00875253
0.0088699
0.00897172
0.00905979
0.0091358
0.0092013
0.00925767
0.00930615
0.00934781
0.00938356
0.00941422
0.00944048
0.00946295
0.00948213
0.00949851
0.00951247
0.0095244
0.00953463
0.00954348
0.0095512
0.00955791
0.00956306
0.01
0.01
0.01
0.01
0.01
0.01
0.01
0.01
0.01
0.01
0.01
0.01
0.01
0.01
0.00999999
0.00999996
0.00999987
0.00999964
0.00999901
0.00999743
0.00999359
0.00998484
0.00996605
0.00992835
0.00985803
0.00973667
0.00954331
0.00925884
0.0088704
0.00837284
0.00776649
0.0070563
0.00626315
0.00545721
0.00473536
0.00397991
0.0037431
0.00365598
0.00365562
0.00374391
0.00413491
0.00454215
0.00493163
0.00535964
0.00578769
0.00619437
0.00657463
0.00692627
0.00724752
0.00753739
0.00779597
0.00802435
0.00822444
0.00839861
0.00854951
0.0086798
0.00879202
0.00888853
0.00897144
0.00904262
0.0091037
0.00915608
0.00920097
0.00923942
0.00927231
0.00930041
0.00932438
0.00934482
0.00936224
0.0093771
0.00938984
0.00940084
0.00941044
0.00941878
0.00942517
0.01
0.01
0.01
0.01
0.01
0.01
0.01
0.01
0.01
0.01
0.01
0.01
0.01
0.00999999
0.00999998
0.00999993
0.0099998
0.00999944
0.00999848
0.00999603
0.0099901
0.00997657
0.00994763
0.00988988
0.00978311
0.00960117
0.0093164
0.00890703
0.00836321
0.0076853
0.00687387
0.00592004
0.00481376
0.00364457
0.00288955
0.00109569
0.00017332
0.00016251
0.000156054
0.000311632
0.00239614
0.00300655
0.00338456
0.00402627
0.00463313
0.0051735
0.00566851
0.00612361
0.00653754
0.00690896
0.00723811
0.0075268
0.007778
0.00799532
0.00818255
0.00834344
0.00848146
0.00859977
0.00870113
0.00878795
0.00886231
0.00892599
0.00898049
0.00902712
0.00906696
0.00910097
0.00912996
0.00915465
0.00917568
0.00919362
0.00920898
0.00922225
0.00923384
0.00924391
0.00925164
0.01
0.01
0.01
0.01
0.01
0.01
0.01
0.01
0.01
0.01
0.01
0.01
0.01
0.00999999
0.00999997
0.0099999
0.00999971
0.00999917
0.00999774
0.00999408
0.00998523
0.00996507
0.00992203
0.0098366
0.00967996
0.00941638
0.00901122
0.00844308
0.00771188
0.00683055
0.0057998
0.00458074
0.00304675
0.000612398
0.000166019
0.000687508
0.000127649
0.000117528
0.000114839
0.000239362
0.000409548
0.000156288
0.00102084
0.00250837
0.00337352
0.00403031
0.004648
0.00522462
0.00574838
0.00621456
0.00662348
0.00697848
0.00728454
0.00754721
0.00777204
0.0079642
0.00812835
0.00826858
0.00838841
0.00849084
0.00857844
0.00865336
0.00871743
0.00877218
0.00881895
0.00885885
0.00889286
0.00892182
0.00894649
0.00896754
0.0089856
0.00900124
0.00901492
0.00902686
0.00903603
0.01
0.01
0.01
0.01
0.01
0.01
0.01
0.01
0.01
0.01
0.01
0.01
0.01
0.00999999
0.00999995
0.00999986
0.00999958
0.00999881
0.00999676
0.0099915
0.00997878
0.00994978
0.00988803
0.00976597
0.00954384
0.00917431
0.00861579
0.00785165
0.00690189
0.00580464
0.0045641
0.00312247
0.000212125
0.000406365
9.94223e-05
6.88502e-07
1.1999e-07
9.6679e-08
1.08022e-07
1.89744e-07
3.48318e-05
0.000100415
0.000621683
0.000171497
0.00210582
0.00267572
0.00346355
0.00421362
0.00488159
0.00546291
0.00596261
0.00638919
0.00675204
0.0070602
0.00732183
0.00754408
0.00773306
0.00789395
0.0080311
0.00814814
0.00824811
0.00833356
0.0084066
0.00846902
0.00852236
0.00856789
0.00860675
0.0086399
0.00866821
0.00869245
0.00871335
0.00873154
0.00874757
0.00876164
0.00877249
0.01
0.01
0.01
0.01
0.01
0.01
0.01
0.01
0.01
0.01
0.01
0.01
0.00999999
0.00999998
0.00999994
0.00999981
0.00999943
0.00999837
0.00999552
0.00998825
0.00997061
0.00993043
0.00984497
0.00967665
0.00937219
0.00887041
0.00812223
0.00711919
0.00591427
0.00459602
0.00316943
0.000267415
0.000174502
3.82804e-07
3.39165e-08
1.56611e-10
4.8925e-11
3.21589e-11
4.0551e-11
8.20009e-11
2.81365e-09
5.79803e-08
6.78235e-07
0.000124114
0.000297598
0.000416151
0.0020457
0.00308729
0.00395263
0.00467336
0.00527295
0.00577276
0.00619065
0.00654116
0.00683608
0.007085
0.0072957
0.00747453
0.00762668
0.00775639
0.00786715
0.00796184
0.00804288
0.00811225
0.00817165
0.00822253
0.00826611
0.0083035
0.00833564
0.00836339
0.00838755
0.00840882
0.00842777
0.00844456
0.00845759
0.01
0.01
0.01
0.01
0.01
0.01
0.01
0.01
0.01
0.01
0.01
0.01
0.00999999
0.00999997
0.00999992
0.00999975
0.00999924
0.00999784
0.00999406
0.00998436
0.00996085
0.00990724
0.00979333
0.00956955
0.00916667
0.00850721
0.00753184
0.00623595
0.00471115
0.00316876
0.00027343
0.000201448
1.24237e-07
1.20812e-10
5.99002e-12
4.79305e-14
1.36073e-14
7.26514e-15
1.03446e-14
2.88805e-14
2.69007e-13
1.77531e-11
1.8568e-10
6.39316e-08
2.99442e-05
0.000245859
0.000189094
0.00188921
0.00300634
0.00388305
0.00458096
0.00514703
0.00561203
0.00599739
0.00631896
0.00658884
0.00681647
0.00700929
0.00717323
0.00731307
0.00743265
0.00753515
0.00762317
0.00769886
0.00776406
0.00782029
0.0078689
0.00791103
0.0079477
0.00797983
0.00800824
0.00803366
0.00805667
0.0080773
0.00809339
0.01
0.01
0.01
0.01
0.01
0.01
0.01
0.01
0.01
0.01
0.01
0.01
0.00999999
0.00999997
0.00999989
0.00999968
0.00999904
0.00999725
0.00999242
0.00998001
0.00994988
0.00988115
0.00973516
0.00944891
0.00893553
0.00809968
0.00686722
0.00521087
0.00319177
0.000213592
0.000175644
1.1769e-07
3.9315e-11
3.30386e-14
7.90256e-16
1.36291e-17
2.9126e-18
1.28629e-18
2.04801e-18
8.09714e-18
4.96159e-17
3.85306e-15
6.37504e-14
1.71332e-11
3.16538e-09
5.69389e-07
0.000166282
0.000231689
0.00213346
0.00314957
0.00391798
0.00453016
0.00502752
0.00543637
0.0057756
0.00605928
0.00629818
0.00650057
0.00667295
0.00682045
0.00694717
0.00705644
0.00715096
0.00723299
0.00730439
0.00736675
0.00742143
0.00746961
0.0075123
0.00755043
0.00758482
0.00761617
0.007645
0.00767113
0.0076916
0.01
0.01
0.01
0.01
0.01
0.01
0.01
0.01
0.01
0.01
0.01
0.01
0.00999999
0.00999996
0.00999987
0.00999961
0.00999883
0.00999664
0.00999072
0.0099755
0.00993846
0.00985393
0.00967439
0.00932293
0.0086951
0.00768056
0.00619702
0.00415776
0.000626074
0.000421503
3.65127e-07
1.12281e-10
3.07269e-14
1.24238e-17
9.56508e-20
3.37153e-21
5.23325e-22
2.00826e-22
3.4793e-22
1.88872e-21
1.33384e-20
6.76266e-19
1.96381e-17
3.70969e-15
7.56274e-13
9.08192e-10
4.63208e-06
0.000460252
0.00161416
0.00252656
0.00330182
0.00393405
0.00444812
0.00486911
0.00521725
0.00550803
0.00575313
0.00596144
0.00613977
0.00629342
0.00642658
0.0065426
0.00664418
0.00673354
0.00681254
0.00688272
0.0069454
0.0070017
0.0070526
0.00709899
0.00714161
0.00718111
0.00721788
0.00725144
0.00727778
0.01
0.01
0.01
0.01
0.01
0.01
0.01
0.01
0.01
0.01
0.01
0.01
0.00999999
0.00999995
0.00999985
0.00999954
0.00999864
0.00999607
0.00998913
0.00997125
0.0099277
0.0098282
0.00961682
0.00920337
0.00846752
0.00729271
0.00564281
0.00367439
0.000182859
0.000117677
4.4058e-08
8.76295e-12
1.28012e-15
1.60664e-19
3.24677e-23
7.3169e-25
8.59553e-26
3.18075e-26
5.6652e-26
3.84866e-25
3.57683e-24
1.08396e-22
6.2017e-21
3.64308e-18
9.86978e-15
2.75852e-11
5.83914e-08
9.09761e-05
0.000138436
0.00190921
0.00271681
0.00336923
0.00389475
0.00432166
0.00467325
0.00496686
0.00521521
0.00542761
0.00561102
0.00577075
0.0059109
0.00603472
0.00614479
0.00624322
0.00633174
0.00641179
0.00648458
0.00655115
0.00661238
0.00666907
0.00672187
0.00677132
0.00681767
0.00686009
0.00689332
0.01
0.01
0.01
0.01
0.01
0.01
0.01
0.01
0.01
0.01
0.01
0.01
0.00999998
0.00999995
0.00999983
0.00999949
0.00999848
0.00999561
0.00998784
0.0099678
0.00991895
0.00980723
0.00956962
0.00910412
0.00827354
0.00694196
0.00506491
0.00287184
0.00061459
2.1373e-05
1.263e-09
1.32933e-13
2.93387e-17
7.44107e-21
1.72111e-24
4.94511e-28
1.42957e-29
5.79712e-30
9.95165e-30
7.20778e-29
9.24526e-28
1.14079e-25
1.72978e-22
2.84517e-19
4.28728e-16
6.73104e-13
2.04714e-09
1.45648e-05
0.000333523
0.00136899
0.00219352
0.00287898
0.00342003
0.0038526
0.00420634
0.00450174
0.00475276
0.00496917
0.005158
0.00532444
0.0054724
0.00560495
0.00572447
0.00583292
0.00593185
0.00602258
0.00610619
0.0061836
0.00625559
0.00632286
0.00638598
0.00644539
0.00650119
0.00655221
0.0065921
0.01
0.01
0.01
0.01
0.01
0.01
0.01
0.01
0.01
0.01
0.01
0.00999999
0.00999998
0.00999994
0.00999982
0.00999946
0.00999838
0.00999533
0.00998706
0.00996573
0.00991371
0.00979467
0.00954116
0.00904304
0.00814727
0.00667982
0.00447421
0.000574639
0.000413855
3.3906e-07
1.29711e-10
4.69962e-14
1.3684e-17
3.27182e-21
6.68311e-25
1.21605e-28
2.3228e-32
1.22706e-33
2.00735e-33
3.42757e-32
3.4471e-29
5.84767e-26
1.0285e-22
1.74496e-19
2.64439e-16
3.34144e-13
3.33751e-10
2.84542e-07
0.000145455
0.000195804
0.00175514
0.00254642
0.00311825
0.00356018
0.00391728
0.00421496
0.00446882
0.00468908
0.00488279
0.00505502
0.00520953
0.00534919
0.00547626
0.00559253
0.00569945
0.00579822
0.00588984
0.00597515
0.00605487
0.00612963
0.00619994
0.00626618
0.00632839
0.00638518
0.00642948
0.01
0.01
0.01
0.01
0.01
0.01
0.01
0.01
0.01
0.01
0.01
0.00999999
0.00999998
0.00999994
0.00999982
0.00999945
0.00999837
0.00999531
0.009987
0.0099656
0.00991345
0.00979421
0.00954046
0.00904219
0.00814659
0.00667959
0.00447285
0.0005955
0.000426683
3.52269e-07
1.31573e-10
4.75804e-14
1.38896e-17
3.33169e-21
6.82643e-25
1.24516e-28
2.33832e-32
1.08546e-33
1.80707e-33
3.31862e-32
3.44769e-29
5.85097e-26
1.02913e-22
1.74597e-19
2.64568e-16
3.34277e-13
3.33911e-10
2.85079e-07
0.000145718
0.000196174
0.00175535
0.00254673
0.00311876
0.00356103
0.00391864
0.00421698
0.00447159
0.00469268
0.00488726
0.00506038
0.0052158
0.00535636
0.00548431
0.00560143
0.00570916
0.0058087
0.00590105
0.00598704
0.0060674
0.00614275
0.0062136
0.00628035
0.00634301
0.00640021
0.00644482
0.01
0.01
0.01
0.01
0.01
0.01
0.01
0.01
0.01
0.01
0.01
0.01
0.00999998
0.00999995
0.00999983
0.00999948
0.00999844
0.00999552
0.00998762
0.0099673
0.00991791
0.00980525
0.00956622
0.00909902
0.008267
0.00693502
0.00505931
0.00287113
0.000569274
2.56241e-05
1.56391e-09
1.51284e-13
3.10616e-17
7.7805e-21
1.8049e-24
4.92342e-28
1.2117e-29
5.02679e-30
8.83103e-30
6.6092e-29
8.89327e-28
1.13547e-25
1.73347e-22
2.85153e-19
4.2994e-16
6.77728e-13
2.08206e-09
1.48365e-05
0.000331188
0.00137025
0.00219462
0.00288001
0.00342131
0.00385455
0.00420937
0.00450618
0.00475889
0.00497721
0.0051681
0.0053367
0.00548689
0.00562168
0.00574346
0.00585412
0.00595521
0.00604804
0.00613366
0.00621299
0.00628682
0.00635581
0.00642055
0.00648146
0.00653866
0.00659094
0.00663181
0.01
0.01
0.01
0.01
0.01
0.01
0.01
0.01
0.01
0.01
0.01
0.01
0.00999998
0.00999995
0.00999984
0.00999952
0.00999858
0.00999592
0.00998877
0.00997042
0.00992595
0.00982481
0.00961089
0.00919421
0.0084555
0.00728014
0.00563393
0.00367173
0.000180645
0.000117245
4.58591e-08
9.41779e-12
1.41377e-15
1.80408e-19
3.27042e-23
6.30078e-25
7.27035e-26
2.69557e-26
4.97953e-26
3.54861e-25
3.44385e-24
1.03658e-22
6.16466e-21
3.68615e-18
9.98319e-15
2.78183e-11
5.8848e-08
9.16318e-05
0.000138326
0.00191113
0.00271855
0.0033707
0.00389638
0.004324
0.00467681
0.00497211
0.00522253
0.0054373
0.00562333
0.00578586
0.00592895
0.00605577
0.0061689
0.00627039
0.00636195
0.00644499
0.0065207
0.00659011
0.00665408
0.00671338
0.00676867
0.00682049
0.00686905
0.00691347
0.00694828
0.01
0.01
0.01
0.01
0.01
0.01
0.01
0.01
0.01
0.01
0.01
0.01
0.00999999
0.00999996
0.00999986
0.00999958
0.00999876
0.00999645
0.00999026
0.00997445
0.00993622
0.00984953
0.0096666
0.00931073
0.0086788
0.00766328
0.00618496
0.00415602
0.000678059
0.000450768
3.87029e-07
1.15761e-10
3.14478e-14
1.19704e-17
7.69123e-20
2.95449e-21
4.48939e-22
1.69462e-22
3.07128e-22
1.75719e-21
1.28395e-20
6.48614e-19
1.94883e-17
3.72751e-15
7.77893e-13
9.40155e-10
4.97638e-06
0.000451487
0.00162395
0.00253067
0.00330407
0.00393558
0.00444963
0.00487121
0.0052205
0.00551291
0.00576006
0.00597078
0.0061518
0.00630837
0.00644464
0.00656389
0.0066688
0.00676155
0.00684396
0.00691755
0.00698361
0.00704323
0.0070974
0.00714694
0.00719261
0.00723504
0.00727458
0.00731069
0.00733903
0.01
0.01
0.01
0.01
0.01
0.01
0.01
0.01
0.01
0.01
0.01
0.01
0.00999999
0.00999996
0.00999988
0.00999965
0.00999896
0.00999704
0.00999191
0.00997885
0.00994739
0.00987624
0.00972634
0.00943483
0.00891605
0.00807736
0.00684769
0.00520012
0.00319279
0.000214148
0.000176098
1.16066e-07
3.73235e-11
3.00592e-14
6.45147e-16
1.21571e-17
2.55962e-18
1.10608e-18
1.8378e-18
7.61603e-18
4.6926e-17
3.72207e-15
6.33551e-14
1.72254e-11
3.30131e-09
5.83981e-07
0.000168804
0.000235978
0.00213574
0.0031517
0.00391941
0.00453115
0.00502852
0.00543788
0.00577809
0.00606322
0.00630395
0.00650852
0.00668338
0.0068336