/*--------------------------------*- C++ -*----------------------------------*\
  =========                 |
  \\      /  F ield         | OpenFOAM: The Open Source CFD Toolbox
   \\    /   O peration     | Website:  https://openfoam.org
    \\  /    A nd           | Version:  7
     \\/     M anipulation  |
\*---------------------------------------------------------------------------*/
FoamFile
{
    version     2.0;
    format      ascii;
    class       volScalarField;
    location    "30";
    object      p;
}
// * * * * * * * * * * * * * * * * * * * * * * * * * * * * * * * * * * * * * //

dimensions      [0 2 -2 0 0 0 0];

internalField   nonuniform List<scalar> 
5625
(
0.00115807
0.00071489
0.000502127
0.000415427
0.000369785
0.000342342
0.000325045
0.000313376
0.000304934
0.000298471
0.000293282
0.000288929
0.000285123
0.000281664
0.000278407
0.000275242
0.000272086
0.00026887
0.00026554
0.00026205
0.000258361
0.000254441
0.000250264
0.000245807
0.000241054
0.000235992
0.000230613
0.000224915
0.000218899
0.000212575
0.000205953
0.000199054
0.0001919
0.000184519
0.000176944
0.000169211
0.000161361
0.000153433
0.000145471
0.000137519
0.000129619
0.000121812
0.000114137
0.00010663
9.93226e-05
9.22436e-05
8.54168e-05
7.88614e-05
7.25926e-05
6.66205e-05
6.09515e-05
5.55877e-05
5.05274e-05
4.57658e-05
4.12949e-05
3.71042e-05
3.31811e-05
2.9511e-05
2.60782e-05
2.28658e-05
1.98565e-05
1.70326e-05
1.43766e-05
1.18719e-05
9.50265e-06
7.25494e-06
5.11758e-06
3.08335e-06
1.15103e-06
-6.70042e-07
-2.34476e-06
-3.79918e-06
-4.99093e-06
-5.78954e-06
-3.96419e-06
0.000808514
0.000630724
0.000511209
0.000441136
0.000394749
0.000363125
0.000341414
0.000326015
0.000314642
0.000305913
0.00029896
0.000293213
0.000288288
0.000283916
0.000279902
0.000276105
0.000272414
0.000268744
0.000265027
0.000261209
0.000257244
0.000253095
0.000248733
0.000244133
0.000239276
0.000234149
0.000228744
0.000223056
0.000217087
0.000210843
0.000204336
0.000197582
0.000190603
0.000183422
0.000176069
0.000168576
0.000160979
0.000153314
0.000145619
0.000137934
0.000130297
0.000122743
0.000115309
0.000108026
0.000100924
9.40299e-05
8.73647e-05
8.09472e-05
7.47916e-05
6.89086e-05
6.33047e-05
5.7983e-05
5.29431e-05
4.81819e-05
4.3693e-05
3.94681e-05
3.54967e-05
3.17667e-05
2.82645e-05
2.4976e-05
2.18862e-05
1.89803e-05
1.62434e-05
1.36619e-05
1.12231e-05
8.91684e-06
6.7359e-06
4.678e-06
2.74722e-06
9.57614e-07
-6.50448e-07
-1.99567e-06
-3.09548e-06
-4.15064e-06
-3.30364e-06
0.00059982
0.000543709
0.000484178
0.000435621
0.000397951
0.000369552
0.000348371
0.000332404
0.00032012
0.000310439
0.000302602
0.000296072
0.000290465
0.000285504
0.000280983
0.000276747
0.000272677
0.000268679
0.00026468
0.000260621
0.000256451
0.000252132
0.000247632
0.000242925
0.000237992
0.000232817
0.000227391
0.00022171
0.000215775
0.000209591
0.000203169
0.000196521
0.000189669
0.000182634
0.000175443
0.000168125
0.000160712
0.000153239
0.000145741
0.000138251
0.000130806
0.00012344
0.000116184
0.000109068
0.000102121
9.53658e-05
8.8824e-05
8.2513e-05
7.64465e-05
7.0635e-05
6.50854e-05
5.98012e-05
5.4783e-05
5.00285e-05
4.55328e-05
4.12888e-05
3.72877e-05
3.35188e-05
2.99706e-05
2.66305e-05
2.34855e-05
2.05225e-05
1.77287e-05
1.50923e-05
1.26027e-05
1.02515e-05
8.03342e-06
5.94754e-06
3.99816e-06
2.19617e-06
5.75237e-07
-7.92624e-07
-1.98485e-06
-3.43095e-06
-3.28054e-06
0.000491481
0.000477438
0.000447864
0.00041659
0.000389265
0.0003667
0.000348486
0.000333874
0.000322087
0.000312459
0.000304454
0.000297656
0.000291746
0.000286478
0.000281664
0.000277157
0.000272841
0.000268623
0.000264429
0.000260199
0.000255884
0.000251443
0.000246843
0.000242059
0.000237069
0.000231859
0.00022642
0.000220745
0.000214836
0.000208696
0.000202335
0.000195765
0.000189005
0.000182076
0.000175002
0.000167811
0.000160533
0.000153199
0.000145842
0.000138496
0.000131192
0.000123963
0.000116839
0.000109849
0.000103018
9.63694e-05
8.9923e-05
8.36956e-05
7.77006e-05
7.19482e-05
6.64453e-05
6.11957e-05
5.62005e-05
5.14579e-05
4.6964e-05
4.27126e-05
3.86958e-05
3.49043e-05
3.13275e-05
2.79542e-05
2.47726e-05
2.1771e-05
1.89377e-05
1.6262e-05
1.37343e-05
1.13469e-05
9.09458e-06
6.97567e-06
4.99177e-06
3.14766e-06
1.46708e-06
9.45363e-09
-1.34769e-06
-3.16108e-06
-3.43157e-06
0.000427663
0.000428852
0.000415232
0.000396104
0.000377216
0.000360133
0.000345279
0.000332636
0.000321946
0.000312877
0.000305109
0.000298358
0.000292387
0.000287
0.000282038
0.000277374
0.000272902
0.000268535
0.000264205
0.000259852
0.000255429
0.000250897
0.000246222
0.000241379
0.000236348
0.000231113
0.000225664
0.000219996
0.000214108
0.000208003
0.000201691
0.000195184
0.000188497
0.000181651
0.000174669
0.000167577
0.000160404
0.000153179
0.000145934
0.0001387
0.000131508
0.00012439
0.000117372
0.000110483
0.000103748
9.71871e-05
9.08209e-05
8.4665e-05
7.87324e-05
7.30329e-05
6.75734e-05
6.23578e-05
5.73872e-05
5.26606e-05
4.81743e-05
4.39229e-05
3.98993e-05
3.60949e-05
3.25001e-05
2.91045e-05
2.58973e-05
2.28675e-05
2.00045e-05
1.72981e-05
1.47391e-05
1.23198e-05
1.00343e-05
7.87946e-06
5.85347e-06
3.95514e-06
2.19993e-06
6.37509e-07
-8.85782e-07
-3.00523e-06
-3.57029e-06
0.000386844
0.000393276
0.000388153
0.000377003
0.000364365
0.000351833
0.000340131
0.000329588
0.000320253
0.000312028
0.000304761
0.000298286
0.000292445
0.000287095
0.000282114
0.000277396
0.000272852
0.000268407
0.000263997
0.000259568
0.000255076
0.000250484
0.00024576
0.000240878
0.000235819
0.000230568
0.000225115
0.000219454
0.000213583
0.000207507
0.000201232
0.00019477
0.000188137
0.000181352
0.000174438
0.000167418
0.000160321
0.000153176
0.000146013
0.000138863
0.000131754
0.000124718
0.000117781
0.00011097
0.000104309
9.78189e-05
9.15177e-05
8.54212e-05
7.95417e-05
7.38888e-05
6.8469e-05
6.32862e-05
5.83417e-05
5.36345e-05
4.91611e-05
4.49167e-05
4.08944e-05
3.70863e-05
3.34834e-05
3.00759e-05
2.68535e-05
2.38058e-05
2.09226e-05
1.8194e-05
1.56109e-05
1.31651e-05
1.08497e-05
8.65965e-06
6.59004e-06
4.63465e-06
2.80267e-06
1.13751e-06
-5.34977e-07
-2.90019e-06
-3.68099e-06
0.00035935
0.000367042
0.000366234
0.000360099
0.000351899
0.000342942
0.000333964
0.000325411
0.000317485
0.000310234
0.000303622
0.000297576
0.000292005
0.000286816
0.000281921
0.00027724
0.000272701
0.000268241
0.000263805
0.000259346
0.000254823
0.000250202
0.000245453
0.000240553
0.000235482
0.000230225
0.000224773
0.000219119
0.000213263
0.000207207
0.000200957
0.000194526
0.000187928
0.000181181
0.000174308
0.000167334
0.000160285
0.000153189
0.000146078
0.00013898
0.000131926
0.000124944
0.000118062
0.000111306
0.000104698
9.82597e-05
9.20081e-05
8.59585e-05
8.01226e-05
7.45097e-05
6.91258e-05
6.39747e-05
5.90574e-05
5.43727e-05
4.99174e-05
4.56866e-05
4.16737e-05
3.7871e-05
3.42698e-05
3.08606e-05
2.76334e-05
2.4578e-05
2.16845e-05
1.89428e-05
1.63436e-05
1.3878e-05
1.15383e-05
9.3172e-06
7.20729e-06
5.19839e-06
3.29532e-06
1.53774e-06
-2.60891e-07
-2.817e-06
-3.75813e-06
0.000339803
0.000347342
0.00034867
0.00034563
0.000340498
0.000334242
0.000327489
0.000320686
0.00031409
0.000307825
0.000301931
0.000296397
0.000291185
0.000286243
0.000281514
0.000276941
0.00027247
0.00026805
0.000263636
0.000259187
0.000254667
0.000250046
0.000245297
0.000240397
0.000235328
0.000230075
0.00022463
0.000218985
0.00021314
0.000207096
0.000200861
0.000194445
0.000187862
0.000181133
0.000174277
0.000167321
0.00016029
0.000153215
0.000146125
0.000139051
0.000132022
0.000125068
0.000118216
0.000111491
0.000104916
9.85116e-05
9.22949e-05
8.62803e-05
8.04791e-05
7.49e-05
6.95486e-05
6.4428e-05
5.95391e-05
5.48802e-05
5.04481e-05
4.62374e-05
4.22417e-05
3.84532e-05
3.48632e-05
3.14622e-05
2.82403e-05
2.51875e-05
2.22934e-05
1.9548e-05
1.69415e-05
1.44644e-05
1.21075e-05
9.86238e-06
7.71922e-06
5.66506e-06
3.7018e-06
1.86697e-06
-3.27088e-08
-2.73066e-06
-3.79397e-06
0.000325248
0.000332233
0.000334596
0.000333459
0.000330418
0.000326153
0.000321157
0.000315824
0.000310412
0.000305078
0.000299899
0.000294908
0.000290102
0.000285461
0.000280954
0.000276542
0.000272188
0.000267853
0.000263501
0.000259098
0.000254613
0.000250018
0.000245291
0.000240408
0.000235355
0.000230116
0.000224682
0.000219048
0.000213211
0.000207173
0.000200941
0.000194525
0.00018794
0.000181205
0.000174342
0.000167377
0.000160337
0.000153252
0.000146154
0.000139074
0.000132042
0.000125088
0.00011824
0.000111524
0.000104962
9.85744e-05
9.23783e-05
8.63874e-05
8.06126e-05
7.50616e-05
6.97396e-05
6.4649e-05
5.979e-05
5.51605e-05
5.07567e-05
4.65728e-05
4.26022e-05
3.88366e-05
3.52672e-05
3.18844e-05
2.8678e-05
2.56378e-05
2.27534e-05
2.00141e-05
1.74099e-05
1.49303e-05
1.25654e-05
1.03053e-05
8.13858e-06
6.05045e-06
4.04087e-06
2.14604e-06
1.70203e-07
-2.62572e-06
-3.78365e-06
0.000314052
0.000320433
0.00032327
0.000323302
0.000321677
0.000318862
0.000315225
0.000311092
0.000306699
0.000302203
0.000297701
0.000293247
0.000288864
0.000284554
0.000280302
0.00027609
0.00027189
0.000267676
0.000263418
0.000259091
0.000254667
0.000250123
0.000245437
0.000240589
0.000235564
0.000230349
0.000224933
0.00021931
0.000213478
0.00020744
0.0002012
0.000194769
0.000188163
0.000181401
0.000174505
0.000167503
0.000160424
0.000153299
0.000146162
0.000139045
0.00013198
0.000124999
0.00011813
0.0001114
0.000104831
9.8444e-05
9.22548e-05
8.6277e-05
8.05207e-05
7.4993e-05
6.9698e-05
6.46374e-05
5.98105e-05
5.52143e-05
5.08444e-05
4.66944e-05
4.27569e-05
3.90233e-05
3.54842e-05
3.21297e-05
2.89493e-05
2.59323e-05
2.30679e-05
2.03452e-05
1.77534e-05
1.52816e-05
1.29189e-05
1.06545e-05
8.47584e-06
6.36686e-06
4.32631e-06
2.38935e-06
3.61036e-07
-2.49298e-06
-3.72451e-06
0.000305269
0.000311096
0.000314117
0.000314862
0.000314194
0.000312427
0.000309829
0.000306659
0.00030312
0.000299357
0.000295473
0.00029153
0.000287565
0.000283594
0.000279617
0.000275628
0.000271609
0.000267543
0.000263407
0.000259181
0.000254842
0.00025037
0.000245744
0.000240947
0.000235963
0.000230779
0.000225386
0.000219777
0.000213949
0.000207903
0.000201644
0.000195184
0.000188538
0.000181725
0.00017477
0.000167702
0.000160552
0.000153355
0.000146145
0.000138959
0.000131832
0.000124795
0.00011788
0.000111113
0.000104517
9.81136e-05
9.19182e-05
8.59434e-05
8.01987e-05
7.469e-05
6.94206e-05
6.43908e-05
5.95988e-05
5.50408e-05
5.07111e-05
4.66026e-05
4.27069e-05
3.90147e-05
3.55161e-05
3.22004e-05
2.90567e-05
2.60738e-05
2.32404e-05
2.05452e-05
1.79769e-05
1.55239e-05
1.31747e-05
1.09178e-05
8.7399e-06
6.62418e-06
4.56866e-06
2.60728e-06
5.48851e-07
-2.32651e-06
-3.61486e-06
0.000298312
0.000303651
0.000306703
0.000307877
0.000307853
0.000306839
0.000305027
0.00030262
0.000299786
0.000296654
0.000293318
0.000289847
0.000286281
0.000282646
0.000278952
0.000275199
0.000271379
0.000267481
0.000263489
0.000259385
0.000255151
0.000250769
0.00024622
0.000241489
0.000236558
0.000231417
0.000226053
0.000220459
0.000214633
0.000208573
0.000202285
0.00019578
0.000189073
0.000182185
0.000175143
0.000167977
0.000160723
0.000153418
0.000146102
0.000138813
0.00013159
0.000124468
0.000117479
0.000110651
0.000104009
9.75734e-05
9.1359e-05
8.53782e-05
7.9639e-05
7.41463e-05
6.89019e-05
6.39048e-05
5.91519e-05
5.46377e-05
5.03555e-05
4.62969e-05
4.24524e-05
3.88118e-05
3.53643e-05
3.20985e-05
2.90028e-05
2.60654e-05
2.32746e-05
2.06184e-05
1.80851e-05
1.56626e-05
1.33389e-05
1.11021e-05
8.93823e-06
6.83043e-06
4.77602e-06
2.80748e-06
7.39932e-07
-2.12243e-06
-3.4538e-06
0.000292794
0.000297705
0.000300702
0.000302126
0.000302529
0.000302053
0.000300833
0.000299025
0.000296766
0.000294167
0.000291313
0.000288267
0.000285075
0.000281764
0.000278351
0.00027484
0.000271231
0.000267516
0.000263683
0.00025972
0.000255609
0.000251334
0.000246879
0.000242228
0.000237363
0.000232273
0.000226945
0.000221371
0.000215545
0.000209466
0.000203139
0.000196573
0.000189784
0.000182794
0.000175634
0.000168336
0.00016094
0.000153489
0.000146028
0.000138599
0.000131245
0.000124006
0.000116915
0.000110003
0.000103294
9.68101e-05
9.05648e-05
8.45696e-05
7.88311e-05
7.33526e-05
6.81342e-05
6.31732e-05
5.84645e-05
5.40013e-05
4.9775e-05
4.57758e-05
4.19929e-05
3.8415e-05
3.503e-05
3.18258e-05
2.879e-05
2.59102e-05
2.31738e-05
2.05687e-05
1.80824e-05
1.57027e-05
1.34171e-05
1.12132e-05
9.07715e-06
6.99201e-06
4.95464e-06
2.99553e-06
9.38651e-07
-1.87842e-06
-3.2411e-06
0.000288451
0.000292977
0.00029587
0.000297424
0.000298106
0.00029801
0.000297231
0.000295891
0.000294098
0.000291945
0.000289508
0.000286843
0.000283994
0.00028099
0.00027785
0.000274583
0.000271191
0.000267669
0.00026401
0.000260202
0.00025623
0.00025208
0.000247734
0.000243177
0.000238392
0.000233364
0.000228081
0.00022253
0.000216704
0.000210602
0.000204225
0.000197582
0.000190689
0.00018357
0.000176256
0.000168788
0.000161209
0.000153569
0.000145918
0.000138308
0.000130785
0.000123394
0.000116171
0.000109149
0.000102355
9.58065e-05
8.95195e-05
8.35029e-05
7.77618e-05
7.22974e-05
6.71076e-05
6.21876e-05
5.75302e-05
5.31265e-05
4.89659e-05
4.5037e-05
4.13273e-05
3.78241e-05
3.45141e-05
3.13841e-05
2.84207e-05
2.56109e-05
2.29416e-05
2.04e-05
1.79733e-05
1.56489e-05
1.34141e-05
1.12564e-05
9.16194e-06
7.1141e-06
5.10927e-06
3.17551e-06
1.1479e-06
-1.5933e-06
-2.97715e-06
0.000285089
0.000289262
0.000292019
0.000293623
0.000294477
0.000294645
0.000294193
0.000293215
0.000291797
0.000290016
0.000287936
0.000285608
0.000283072
0.000280357
0.000277481
0.000274455
0.000271283
0.000267962
0.000264487
0.000260847
0.00025703
0.000253019
0.000248799
0.000244352
0.000239661
0.000234709
0.000229479
0.000223959
0.000218137
0.000212008
0.000205571
0.000198834
0.000191813
0.000184533
0.000177029
0.000169345
0.000161535
0.000153656
0.000145768
0.000137929
0.000130194
0.000122613
0.000115227
0.00010807
0.000101168
9.45416e-05
8.8203e-05
8.21598e-05
7.64147e-05
7.09662e-05
6.58098e-05
6.09378e-05
5.63407e-05
5.20069e-05
4.79237e-05
4.40775e-05
4.0454e-05
3.70387e-05
3.38172e-05
3.07747e-05
2.78973e-05
2.51707e-05
2.25815e-05
2.01162e-05
1.77619e-05
1.55056e-05
1.33346e-05
1.12363e-05
9.19711e-06
7.20089e-06
5.2436e-06
3.35029e-06
1.36951e-06
-1.26692e-06
-2.66293e-06
0.000282563
0.000286402
0.000289002
0.0002906
0.00029155
0.000291895
0.000291681
0.00029098
0.000289863
0.00028839
0.000286616
0.000284586
0.000282334
0.000279888
0.000277264
0.000274475
0.000271524
0.000268411
0.00026513
0.000261671
0.000258022
0.000254167
0.00025009
0.00024577
0.00024119
0.000236328
0.000231165
0.000225684
0.000219871
0.000213715
0.000207211
0.000200365
0.00019319
0.000185714
0.000177975
0.000170026
0.000161928
0.000153752
0.000145568
0.000137447
0.000129451
0.000121639
0.000114055
0.000106736
9.97077e-05
9.29892e-05
8.65912e-05
8.05182e-05
7.477e-05
6.93419e-05
6.42261e-05
5.94117e-05
5.48862e-05
5.0635e-05
4.66428e-05
4.28936e-05
3.93709e-05
3.60584e-05
3.29398e-05
2.99995e-05
2.7222e-05
2.45926e-05
2.20969e-05
1.97213e-05
1.74523e-05
1.52771e-05
1.31828e-05
1.1157e-05
9.1865e-06
7.2558e-06
5.36041e-06
3.52189e-06
1.60441e-06
-8.99953e-07
-2.30006e-06
0.000280757
0.000284274
0.000286701
0.000288252
0.000289241
0.000289697
0.000289653
0.000289164
0.000288286
0.000287068
0.000285556
0.000283788
0.000281794
0.000279597
0.000277215
0.000274658
0.000271929
0.000269028
0.000265949
0.000262684
0.000259219
0.000255537
0.00025162
0.000247448
0.000242997
0.000238244
0.000233165
0.000227739
0.000221944
0.000215763
0.000209188
0.000202217
0.000194862
0.000187151
0.000179127
0.000170851
0.000162399
0.000153856
0.00014531
0.000136842
0.00012853
0.000120441
0.000112623
0.000105114
9.79402e-05
9.11181e-05
8.46551e-05
7.85522e-05
7.28049e-05
6.74047e-05
6.23397e-05
5.75955e-05
5.31557e-05
4.90025e-05
4.51174e-05
4.14815e-05
3.80761e-05
3.48825e-05
3.1883e-05
2.90602e-05
2.63977e-05
2.38799e-05
2.14918e-05
1.92193e-05
1.70489e-05
1.49677e-05
1.29629e-05
1.10225e-05
9.13354e-06
7.28166e-06
5.46183e-06
3.69156e-06
1.85281e-06
-4.93871e-07
-1.89073e-06
0.000279577
0.000282778
0.000285017
0.000286491
0.000287477
0.000287995
0.000288068
0.000287737
0.000287048
0.000286042
0.000284754
0.000283217
0.000281457
0.000279494
0.000277343
0.000275012
0.000272506
0.000269822
0.000266956
0.000263897
0.000260631
0.000257141
0.000253405
0.000249402
0.000245103
0.000240483
0.000235511
0.000230158
0.000224396
0.000218201
0.000211553
0.000204445
0.000196883
0.000188893
0.000180524
0.000171849
0.000162961
0.000153968
0.000144977
0.000136087
0.000127396
0.000118978
0.000110888
0.000103162
9.58253e-05
8.88908e-05
8.2361e-05
7.62314e-05
7.04929e-05
6.51319e-05
6.01318e-05
5.54737e-05
5.1137e-05
4.71001e-05
4.33408e-05
3.98371e-05
3.65674e-05
3.3511e-05
3.06478e-05
2.79592e-05
2.54276e-05
2.30364e-05
2.07703e-05
1.86147e-05
1.65561e-05
1.45816e-05
1.26789e-05
1.08362e-05
9.0413e-06
7.2809e-06
5.54942e-06
3.86001e-06
2.11428e-06
-5.08653e-08
-1.43779e-06
0.000278942
0.000281827
0.000283869
0.000285242
0.000286193
0.000286735
0.000286882
0.000286668
0.000286129
0.000285297
0.000284202
0.00028287
0.000281323
0.000279579
0.00027765
0.000275543
0.00027326
0.0002708
0.000268155
0.000265316
0.000262267
0.000258988
0.000255458
0.000251649
0.000247531
0.000243072
0.000238235
0.000232983
0.000227278
0.000221085
0.000214372
0.000207118
0.000199322
0.000191006
0.000182222
0.000173057
0.000163631
0.000154085
0.00014455
0.000135147
0.000126
0.0001172
0.000108798
0.000100828
9.33144e-05
8.62632e-05
7.96692e-05
7.35215e-05
6.78042e-05
6.24981e-05
5.75812e-05
5.30294e-05
4.88171e-05
4.49182e-05
4.13066e-05
3.79566e-05
3.48436e-05
3.19441e-05
2.92363e-05
2.66997e-05
2.43156e-05
2.20668e-05
1.99372e-05
1.79124e-05
1.59787e-05
1.41235e-05
1.2335e-05
1.06018e-05
8.91273e-06
7.25561e-06
5.62441e-06
4.02742e-06
2.38788e-06
4.26127e-07
-9.44695e-07
0.00027878
0.000281349
0.000283183
0.000284438
0.000285329
0.000285864
0.000286054
0.000285924
0.000285502
0.000284815
0.000283886
0.000282738
0.000281388
0.00027985
0.000278135
0.000276248
0.000274191
0.00027196
0.000269549
0.000266944
0.00026413
0.000261087
0.000257787
0.000254203
0.000250299
0.000246036
0.000241372
0.000236259
0.000230646
0.000224484
0.000217723
0.000210325
0.000202271
0.000193574
0.000184293
0.000174525
0.000164428
0.000154201
0.000144001
0.000133969
0.000124278
0.000115039
0.000106287
9.80499e-05
9.03496e-05
8.31837e-05
7.65352e-05
7.03834e-05
6.47056e-05
5.94757e-05
5.46653e-05
5.02445e-05
4.61822e-05
4.24472e-05
3.90087e-05
3.58369e-05
3.29038e-05
3.01833e-05
2.76513e-05
2.52857e-05
2.30667e-05
2.09764e-05
1.89983e-05
1.7118e-05
1.53221e-05
1.35984e-05
1.19355e-05
1.03231e-05
8.7507e-06
7.20773e-06
5.68765e-06
4.19364e-06
2.67214e-06
9.33521e-07
-4.15594e-07
0.000279025
0.000281277
0.000282896
0.000284018
0.00028483
0.000285336
0.000285543
0.00028547
0.00028514
0.000284574
0.00028379
0.000282807
0.000281639
0.000280298
0.000278791
0.000277123
0.000275295
0.000273301
0.000271134
0.000268781
0.000266223
0.00026344
0.000260401
0.000257076
0.000253425
0.000249403
0.000244958
0.000240033
0.000234562
0.000228477
0.000221704
0.000214177
0.000205846
0.000196712
0.000186834
0.000176315
0.000165373
0.000154307
0.000143293
0.000132483
0.000122142
0.000112411
0.000103275
9.47495e-05
8.68616e-05
7.95936e-05
7.29084e-05
6.67746e-05
6.11611e-05
5.60346e-05
5.13598e-05
4.71003e-05
4.32186e-05
3.96777e-05
3.64415e-05
3.34758e-05
3.07489e-05
2.82315e-05
2.58974e-05
2.37229e-05
2.16873e-05
1.97718e-05
1.79603e-05
1.62381e-05
1.45924e-05
1.30116e-05
1.14853e-05
1.00039e-05
8.55815e-06
7.13911e-06
5.73987e-06
4.35815e-06
2.96521e-06
1.46702e-06
1.44745e-07
0.000279618
0.00028155
0.000282949
0.000283928
0.000284645
0.000285105
0.000285309
0.000285273
0.000285014
0.000284549
0.000283893
0.000283061
0.000282063
0.00028091
0.000279608
0.000278159
0.000276563
0.000274815
0.000272905
0.00027082
0.000268542
0.000266046
0.000263303
0.000260276
0.000256923
0.000253193
0.000249027
0.000244354
0.000239095
0.000233155
0.000226432
0.000218815
0.000210205
0.000200572
0.000189979
0.000178509
0.000166474
0.000154382
0.000142387
0.000130588
0.000119464
0.000109207
9.96663e-05
9.08337e-05
8.27699e-05
7.54269e-05
6.87347e-05
6.26491e-05
5.71322e-05
5.21432e-05
4.76395e-05
4.35775e-05
3.99126e-05
3.66012e-05
3.3601e-05
3.0873e-05
2.83811e-05
2.60933e-05
2.39808e-05
2.20187e-05
2.01852e-05
1.84614e-05
1.68311e-05
1.52803e-05
1.37966e-05
1.23696e-05
1.09897e-05
9.64851e-06
8.3382e-06
7.05165e-06
5.78159e-06
4.52024e-06
3.26481e-06
2.02174e-06
7.30862e-07
0.000280501
0.000282113
0.000283286
0.000284114
0.000284727
0.000285126
0.000285312
0.000285297
0.000285093
0.000284715
0.000284173
0.000283479
0.000282643
0.000281671
0.00028057
0.000279341
0.000277982
0.000276488
0.00027485
0.000273053
0.000271078
0.0002689
0.000266487
0.000263803
0.0002608
0.000257423
0.000253606
0.000249269
0.000244314
0.000238622
0.00023205
0.000224424
0.000215558
0.000205375
0.000193962
0.00018127
0.000167725
0.000154394
0.000141244
0.000128082
0.000116007
0.000105279
9.53459e-05
8.61878e-05
7.79795e-05
7.06135e-05
6.3957e-05
5.7959e-05
5.25787e-05
4.77684e-05
4.34783e-05
3.96569e-05
3.62515e-05
3.32106e-05
3.04852e-05
2.80303e-05
2.58058e-05
2.37761e-05
2.19105e-05
2.01828e-05
1.85706e-05
1.7055e-05
1.56204e-05
1.42535e-05
1.29429e-05
1.16794e-05
1.04547e-05
9.26165e-06
8.09423e-06
6.94728e-06
5.81336e-06
4.67896e-06
3.56837e-06
2.59213e-06
1.33669e-06
0.000281619
0.000282911
0.000283856
0.000284528
0.000285029
0.000285358
0.000285515
0.000285508
0.000285347
0.000285042
0.000284603
0.000284038
0.000283356
0.000282562
0.00028166
0.000280652
0.000279535
0.000278305
0.000276953
0.000275462
0.000273816
0.000271987
0.000269945
0.00026765
0.000265054
0.000262098
0.000258714
0.000254812
0.000250283
0.000244983
0.000238724
0.000231247
0.000222212
0.00021145
0.000199167
0.000184938
0.000169101
0.00015429
0.000139832
0.00012453
0.000111357
0.000100467
9.01832e-05
8.06442e-05
7.237e-05
6.50802e-05
5.85198e-05
5.26564e-05
4.74596e-05
4.28763e-05
3.88497e-05
3.53198e-05
3.2224e-05
2.95013e-05
2.70948e-05
2.49531e-05
2.30312e-05
2.12905e-05
1.96984e-05
1.82277e-05
1.6856e-05
1.5565e-05
1.43397e-05
1.31682e-05
1.20406e-05
1.0949e-05
9.88681e-06
8.84857e-06
7.82997e-06
6.82819e-06
5.83568e-06
4.83327e-06
3.87299e-06
3.17213e-06
1.95551e-06
0.000282918
0.000283893
0.00028461
0.000285124
0.000285508
0.00028576
0.00028588
0.000285872
0.000285744
0.000285504
0.000285158
0.000284715
0.00028418
0.000283559
0.000282855
0.000282069
0.000281201
0.000280245
0.000279191
0.000278028
0.000276735
0.000275289
0.000273657
0.0002718
0.000269671
0.000267211
0.00026435
0.000261001
0.000257049
0.000252337
0.000246638
0.00023959
0.000230549
0.000219054
0.000205683
0.000189304
0.000170305
0.00015398
0.000138267
0.000119986
0.00010538
9.49284e-05
8.41215e-05
7.3956e-05
6.57871e-05
5.87676e-05
5.2379e-05
4.66977e-05
4.17347e-05
3.7432e-05
3.37269e-05
3.05482e-05
2.7821e-05
2.54719e-05
2.34348e-05
2.16508e-05
2.00702e-05
1.86514e-05
1.73603e-05
1.61695e-05
1.50571e-05
1.4006e-05
1.30027e-05
1.20368e-05
1.11005e-05
1.01877e-05
9.29374e-06
8.4151e-06
7.54956e-06
6.69673e-06
5.84916e-06
4.98203e-06
4.1756e-06
3.75515e-06
2.5801e-06
0.000284346
0.000285009
0.000285501
0.000285856
0.000286121
0.000286293
0.00028637
0.000286355
0.000286253
0.00028607
0.000285811
0.000285482
0.000285089
0.000284638
0.00028413
0.000283569
0.000282953
0.000282279
0.000281539
0.000280721
0.000279808
0.000278776
0.000277595
0.000276226
0.000274623
0.000272733
0.00027049
0.000267818
0.000264616
0.000260738
0.000255955
0.00024979
0.000240929
0.00022815
0.000213768
0.000192198
0.000169786
0.000153248
0.000137513
0.000116575
9.7686e-05
8.88118e-05
7.75418e-05
6.59732e-05
5.81906e-05
5.17073e-05
4.55195e-05
4.00458e-05
3.53626e-05
3.13982e-05
2.8081e-05
2.53251e-05
2.30361e-05
2.11257e-05
1.95153e-05
1.81388e-05
1.69411e-05
1.58786e-05
1.49165e-05
1.4028e-05
1.31928e-05
1.23955e-05
1.1625e-05
1.08733e-05
1.01348e-05
9.40573e-06
8.68385e-06
7.96778e-06
7.25757e-06
6.55555e-06
5.85448e-06
5.1241e-06
4.47291e-06
4.3342e-06
3.20268e-06
0.000285853
0.000286212
0.000286485
0.000286684
0.00028683
0.000286921
0.000286952
0.000286925
0.000286843
0.00028671
0.000286532
0.000286312
0.000286057
0.000285771
0.000285458
0.000285122
0.000284763
0.000284379
0.000283964
0.000283509
0.000282999
0.000282412
0.00028172
0.000280886
0.000279867
0.000278614
0.000277075
0.000275197
0.000272924
0.000270183
0.00026683
0.000262365
0.000254145
0.000239524
0.000233207
0.000204979
0.00016197
0.000150798
0.000145472
0.000101893
7.73496e-05
7.95293e-05
7.1764e-05
5.65193e-05
4.96688e-05
4.40406e-05
3.79122e-05
3.26339e-05
2.82847e-05
2.47259e-05
2.18793e-05
1.96338e-05
1.78679e-05
1.6472e-05
1.53543e-05
1.44397e-05
1.36695e-05
1.29985e-05
1.2393e-05
1.1828e-05
1.12859e-05
1.07544e-05
1.02254e-05
9.69388e-06
9.15729e-06
8.61471e-06
8.0665e-06
7.51373e-06
6.95905e-06
6.40758e-06
5.85252e-06
5.25833e-06
4.76155e-06
4.90193e-06
3.81513e-06
0.00028739
0.000287457
0.000287518
0.000287565
0.000287596
0.000287605
0.000287589
0.000287548
0.000287483
0.000287396
0.000287292
0.000287176
0.000287053
0.000286929
0.000286809
0.000286697
0.000286596
0.000286507
0.000286428
0.000286351
0.000286266
0.000286153
0.000285987
0.000285731
0.000285345
0.000284783
0.00028401
0.000283004
0.000281807
0.000280566
0.000279503
0.000278796
0.00027453
0.000256809
0.000266796
0.000304804
0.000126532
0.000139541
0.000202901
-1.38051e-05
3.49997e-05
7.75728e-05
6.31998e-05
3.9931e-05
3.82952e-05
3.58498e-05
2.95565e-05
2.43974e-05
2.04292e-05
1.73547e-05
1.50832e-05
1.34602e-05
1.23211e-05
1.15303e-05
1.09795e-05
1.05863e-05
1.02895e-05
1.0045e-05
9.82188e-06
9.59919e-06
9.3634e-06
9.10657e-06
8.82466e-06
8.51662e-06
8.18336e-06
7.82733e-06
7.45184e-06
7.06077e-06
6.65946e-06
6.25604e-06
5.84426e-06
5.38367e-06
5.03808e-06
5.45082e-06
4.40904e-06
0.000288909
0.000288699
0.000288559
0.000288463
0.000288383
0.000288314
0.000288251
0.000288194
0.000288143
0.000288098
0.000288064
0.000288046
0.00028805
0.000288082
0.000288149
0.000288258
0.000288415
0.000288624
0.000288887
0.000289201
0.00028956
0.000289948
0.000290341
0.000290703
0.00029099
0.000291153
0.000291155
0.000290979
0.000290777
0.000291186
0.000293269
0.000299317
0.000309194
0.000307139
0.000141827
0.00022892
0.000105955
0.000166429
0.000241476
8.36956e-05
0.000112749
0.000162782
1.00408e-05
2.62432e-06
2.12133e-05
2.9435e-05
2.13184e-05
1.55393e-05
1.17681e-05
9.21112e-06
7.6482e-06
6.79392e-06
6.41276e-06
6.33379e-06
6.43345e-06
6.62423e-06
6.84666e-06
7.06113e-06
7.24281e-06
7.37706e-06
7.45666e-06
7.47935e-06
7.44644e-06
7.36151e-06
7.22975e-06
7.05728e-06
6.85083e-06
6.6172e-06
6.36467e-06
6.10441e-06
5.83091e-06
5.49913e-06
5.29911e-06
5.97325e-06
4.97586e-06
0.000290366
0.000289899
0.000289571
0.000289341
0.000289157
0.000289014
0.000288907
0.000288834
0.000288794
0.000288787
0.000288818
0.000288892
0.000289016
0.000289198
0.000289446
0.00028977
0.000290181
0.000290686
0.000291293
0.000292006
0.000292824
0.000293737
0.000294724
0.000295747
0.000296747
0.000297654
0.000298386
0.000298789
0.000298936
0.000300108
0.000303718
0.000310706
0.000318016
0.000182455
0.000163968
0.00109654
0.000907907
0.000839702
0.000961497
0.00125313
0.00126378
0.000331246
0.000114386
-3.38184e-06
2.86576e-05
3.02117e-05
1.2455e-05
5.57336e-06
1.95376e-06
9.81659e-08
-5.00569e-07
-3.69459e-07
1.76939e-07
9.37386e-07
1.77813e-06
2.61581e-06
3.39953e-06
4.1002e-06
4.70302e-06
5.203e-06
5.60133e-06
5.90328e-06
6.11652e-06
6.25023e-06
6.31432e-06
6.31913e-06
6.27493e-06
6.19175e-06
6.0808e-06
5.95638e-06
5.81378e-06
5.60386e-06
5.54132e-06
6.46168e-06
5.50708e-06
0.00029172
0.000291017
0.000290519
0.000290166
0.000289887
0.000289675
0.000289528
0.00028944
0.000289409
0.000289437
0.000289528
0.000289687
0.000289923
0.000290244
0.000290664
0.000291194
0.000291849
0.000292644
0.000293592
0.000294706
0.000295994
0.000297454
0.000299074
0.000300813
0.000302589
0.000304289
0.00030574
0.000306433
0.000305953
0.000306716
0.000309588
0.000312336
0.000174936
0.00145633
0.000908488
0.0010015
0.000975402
0.000970428
0.00103649
0.00114769
0.00118243
0.00116287
0.00191787
0.000236702
0.000136842
8.0766e-07
-8.23626e-06
-7.90762e-06
-1.00678e-05
-1.03587e-05
-9.42022e-06
-7.99208e-06
-6.31154e-06
-4.57022e-06
-2.89667e-06
-1.35576e-06
2.24635e-08
1.22675e-06
2.25793e-06
3.12397e-06
3.83709e-06
4.41153e-06
4.86257e-06
5.20558e-06
5.45579e-06
5.6279e-06
5.736e-06
5.79333e-06
5.81415e-06
5.81573e-06
5.79434e-06
5.69711e-06
5.76157e-06
6.9088e-06
5.99443e-06
0.000292932
0.00029202
0.00029137
0.000290908
0.000290544
0.000290272
0.000290088
0.000289986
0.000289964
0.000290023
0.000290168
0.000290404
0.00029074
0.00029119
0.000291768
0.000292489
0.000293375
0.000294445
0.000295723
0.000297232
0.000298993
0.000301021
0.000303318
0.000305853
0.000308524
0.000311166
0.000313542
0.000314412
0.000311642
0.00031087
0.000311646
0.000410108
0.000809118
0.00108788
0.0010209
0.00102557
0.00102175
0.00103009
0.00106635
0.00111867
0.00115514
0.00119219
0.00130504
0.000950164
0.00108542
8.30163e-05
-1.43316e-05
-1.69366e-05
-2.44892e-05
-2.25565e-05
-1.91076e-05
-1.59508e-05
-1.29074e-05
-1.00488e-05
-7.46564e-06
-5.18227e-06
-3.1936e-06
-1.48336e-06
-2.97561e-08
1.19182e-06
2.20655e-06
3.03919e-06
3.71329e-06
4.25102e-06
4.67306e-06
4.99871e-06
5.2458e-06
5.43084e-06
5.57093e-06
5.68628e-06
5.77409e-06
5.77831e-06
5.95694e-06
7.30771e-06
6.43002e-06
0.000293968
0.000292877
0.000292096
0.00029154
0.000291104
0.000290779
0.000290563
0.00029045
0.000290436
0.000290522
0.000290713
0.000291016
0.000291442
0.000292006
0.000292723
0.000293617
0.000294711
0.000296034
0.00029762
0.000299505
0.000301729
0.000304332
0.000307355
0.000310808
0.000314621
0.000318722
0.000323224
0.000325571
0.000316528
0.000312792
0.000483974
0.000927556
0.000989026
0.00106517
0.00106164
0.00105813
0.00105591
0.0010618
0.00108013
0.00110549
0.00112724
0.00114567
0.00115991
0.00109673
0.00122053
0.00166917
-5.04838e-05
-2.48577e-05
-4.5593e-05
-3.72238e-05
-2.95929e-05
-2.40128e-05
-1.934e-05
-1.52777e-05
-1.17569e-05
-8.72863e-06
-6.14144e-06
-3.94487e-06
-2.09174e-06
-5.38701e-07
7.53901e-07
1.82186e-06