/*--------------------------------*- C++ -*----------------------------------*\
  =========                 |
  \\      /  F ield         | OpenFOAM: The Open Source CFD Toolbox
   \\    /   O peration     | Website:  https://openfoam.org
    \\  /    A nd           | Version:  7
     \\/     M anipulation  |
\*---------------------------------------------------------------------------*/
FoamFile
{
    version     2.0;
    format      ascii;
    class       surfaceScalarField;
    location    "30";
    object      phi;
}
// * * * * * * * * * * * * * * * * * * * * * * * * * * * * * * * * * * * * * //

dimensions      [0 3 -1 0 0 0 0];

internalField   nonuniform List<scalar> 
11100
(
1.93099e-13
7.35674e-14
1.32588e-13
6.0511e-14
9.56383e-14
3.695e-14
7.28742e-14
2.27642e-14
5.83348e-14
1.45394e-14
4.86954e-14
9.63939e-15
4.20484e-14
6.647e-15
3.73027e-14
4.74565e-15
3.38281e-14
3.47467e-15
3.12466e-14
2.58144e-15
2.93209e-14
1.92576e-15
2.78941e-14
1.42678e-15
2.68583e-14
1.03574e-15
2.61364e-14
7.21917e-16
2.56712e-14
4.65208e-16
2.54192e-14
2.52035e-16
2.53462e-14
7.29998e-17
2.54247e-14
-7.84945e-17
2.56318e-14
-2.07132e-16
2.5948e-14
-3.16222e-16
2.63561e-14
-4.08104e-16
2.68405e-14
-4.84386e-16
2.73867e-14
-5.46167e-16
2.79808e-14
-5.94153e-16
2.86097e-14
-6.28806e-16
2.92601e-14
-6.50405e-16
2.99192e-14
-6.59166e-16
3.05745e-14
-6.55271e-16
3.12135e-14
-6.38973e-16
3.18241e-14
-6.10601e-16
3.23947e-14
-5.70655e-16
3.29145e-14
-5.19781e-16
3.33734e-14
-4.58849e-16
3.37623e-14
-3.889e-16
3.40735e-14
-3.11196e-16
3.43006e-14
-2.27143e-16
3.44389e-14
-1.3831e-16
3.44852e-14
-4.63378e-17
3.44382e-14
4.70658e-17
3.4298e-14
1.40224e-16
3.40665e-14
2.315e-16
3.37471e-14
3.19383e-16
3.33446e-14
4.02498e-16
3.28649e-14
4.79666e-16
3.2315e-14
5.49899e-16
3.17026e-14
6.12439e-16
3.10358e-14
6.66739e-16
3.03234e-14
7.12474e-16
2.95738e-14
7.49516e-16
2.87959e-14
7.77931e-16
2.7998e-14
7.97942e-16
2.7188e-14
8.09929e-16
2.63737e-14
8.14379e-16
2.55618e-14
8.11896e-16
2.47586e-14
8.03143e-16
2.39698e-14
7.88867e-16
2.31999e-14
7.69838e-16
2.2453e-14
7.46879e-16
2.17322e-14
7.20821e-16
2.10397e-14
6.92534e-16
2.03768e-14
6.6289e-16
1.9744e-14
6.32814e-16
1.91407e-14
6.03255e-16
1.85655e-14
5.75258e-16
1.80155e-14
5.49962e-16
1.74868e-14
5.28724e-16
1.69736e-14
5.1319e-16
1.6468e-14
5.05557e-16
1.59591e-14
5.0898e-16
1.54307e-14
5.28308e-16
1.486e-14
5.70708e-16
1.4212e-14
6.48053e-16
1.34234e-14
7.88588e-16
1.23823e-14
1.0411e-15
1.35037e-15
2.694e-13
7.08336e-14
2.40824e-13
8.90878e-14
2.05393e-13
7.23808e-14
1.74233e-13
5.39243e-14
1.494e-13
3.93719e-14
1.30262e-13
2.87779e-14
1.1564e-13
2.12691e-14
1.04462e-13
1.59236e-14
9.58967e-14
1.20396e-14
8.93334e-14
9.14472e-15
8.43281e-14
6.93109e-15
8.05572e-14
5.19763e-15
7.77818e-14
3.81119e-15
7.58218e-14
2.6819e-15
7.45391e-14
1.74791e-15
7.38252e-14
9.65904e-16
7.35931e-14
3.05086e-16
7.37713e-14
-2.56615e-16
7.42992e-14
-7.3508e-16
7.51247e-14
-1.14172e-15
7.62012e-14
-1.48465e-15
7.74864e-14
-1.76956e-15
7.89406e-14
-2.00034e-15
8.05261e-14
-2.1796e-15
8.22063e-14
-2.30904e-15
8.39457e-14
-2.38978e-15
8.57092e-14
-2.42269e-15
8.74625e-14
-2.4086e-15
8.9172e-14
-2.34849e-15
9.08052e-14
-2.24375e-15
9.23308e-14
-2.09625e-15
9.37195e-14
-1.90851e-15
9.49444e-14
-1.68371e-15
9.59813e-14
-1.42578e-15
9.68094e-14
-1.1393e-15
9.74117e-14
-8.29458e-16
9.77753e-14
-5.01934e-16
9.78917e-14
-1.6275e-16
9.77568e-14
1.81932e-16
9.73711e-14
5.25965e-16
9.67392e-14
8.63429e-16
9.58698e-14
1.18878e-15
9.47753e-14
1.49702e-15
9.34711e-14
1.78378e-15
9.19756e-14
2.04545e-15
9.03089e-14
2.27917e-15
8.84927e-14
2.4829e-15
8.65498e-14
2.65537e-15
8.45033e-14
2.79604e-15
8.23762e-14
2.90505e-15
8.01909e-14
2.98318e-15
7.79691e-14
3.03171e-15
7.57311e-14
3.0524e-15
7.34956e-14
3.04737e-15
7.12797e-14
3.01907e-15
6.90984e-14
2.97014e-15
6.69648e-14
2.90345e-15
6.48897e-14
2.82197e-15
6.28818e-14
2.7288e-15
6.09472e-14
2.62709e-15
5.909e-14
2.5201e-15
5.73116e-14
2.41117e-15
5.56111e-14
2.30381e-15
5.39846e-14
2.20172e-15
5.24256e-14
2.10899e-15
5.09241e-14
2.03019e-15
4.94666e-14
1.9707e-15
4.8035e-14
1.93712e-15
4.66061e-14
1.93796e-15
4.51499e-14
1.98446e-15
4.36295e-14
2.0911e-15
4.20008e-14
2.27681e-15
4.02197e-14
2.56963e-15
3.82767e-14
2.9841e-15
3.37875e-15
2.79678e-13
5.78224e-14
2.75584e-13
9.31812e-14
2.57184e-13
9.07814e-14
2.34006e-13
7.71018e-14
2.11333e-13
6.20449e-14
1.91296e-13
4.88156e-14
1.74455e-13
3.811e-14
1.60682e-13
2.96961e-14
1.49608e-13
2.31144e-14
1.4082e-13
1.79319e-14
1.33948e-13
1.38034e-14
1.28676e-13
1.04696e-14
1.24747e-13
7.74047e-15
1.21951e-13
5.47766e-15
1.20119e-13
3.58032e-15
1.1911e-13
1.9747e-15
1.18808e-13
6.06628e-16
1.19115e-13
-5.63711e-16
1.19946e-13
-1.56553e-15
1.21224e-13
-2.42009e-15
1.22882e-13
-3.14273e-15
1.24857e-13
-3.74423e-15
1.27089e-13
-4.23206e-15
1.2952e-13
-4.61122e-15
1.32096e-13
-4.88501e-15
1.34762e-13
-5.05567e-15
1.37464e-13
-5.12494e-15
1.4015e-13
-5.09454e-15
1.42769e-13
-4.96664e-15
1.45269e-13
-4.74416e-15
1.47604e-13
-4.43115e-15
1.49728e-13
-4.03293e-15
1.51601e-13
-3.55631e-15
1.53185e-13
-3.00955e-15
1.54448e-13
-2.40234e-15
1.55364e-13
-1.74564e-15
1.55913e-13
-1.05142e-15
1.56083e-13
-3.32316e-16
1.55866e-13
3.98665e-16
1.55263e-13
1.12861e-15
1.54282e-13
1.84504e-15
1.52934e-13
2.5363e-15
1.5124e-13
3.1918e-15
1.49221e-13
3.80237e-15
1.46906e-13
4.3603e-15
1.44326e-13
4.85956e-15
1.41513e-13
5.29576e-15
1.38502e-13
5.66611e-15
1.35329e-13
5.96943e-15
1.32028e-13
6.20593e-15
1.28634e-13
6.37712e-15
1.2518e-13
6.48565e-15
1.21697e-13
6.53515e-15
1.18215e-13
6.53004e-15
1.14758e-13
6.47538e-15
1.11352e-13
6.37678e-15
1.08015e-13
6.24019e-15
1.04765e-13
6.07188e-15
1.01615e-13
5.87833e-15
9.85763e-14
5.6662e-15
9.56542e-14
5.44227e-15
9.28518e-14
5.21353e-15
9.01684e-14
4.98718e-15
8.75994e-14
4.77079e-15
8.51359e-14
4.57241e-15
8.27653e-14
4.40083e-15
8.04701e-14
4.26587e-15
7.82285e-14
4.17877e-15
7.60139e-14
4.15258e-15
7.37959e-14
4.20237e-15
7.15428e-14
4.34422e-15
6.92264e-14
4.59322e-15
6.68363e-14
4.9597e-15
6.44044e-14
5.41607e-15
5.78312e-15
2.78526e-13
4.59632e-14
2.84363e-13
8.73437e-14
2.7886e-13
9.62848e-14
2.65999e-13
8.99625e-14
2.50017e-13
7.80268e-14
2.337e-13
6.51333e-14
2.18561e-13
5.32491e-14
2.05267e-13
4.29895e-14
1.94005e-13
3.43765e-14
1.84719e-13
2.72175e-14
1.77252e-13
2.12704e-14
1.71413e-13
1.63088e-14
1.67012e-13
1.21419e-14
1.63873e-13
8.61666e-15
1.6184e-13
5.61322e-15
1.60776e-13
3.0391e-15
1.60559e-13
8.23599e-16
1.61082e-13
-1.08689e-15
1.62249e-13
-2.73261e-15
1.63972e-13
-4.14334e-15
1.6617e-13
-5.34075e-15
1.68766e-13
-6.34023e-15
1.71686e-13
-7.15237e-15
1.74859e-13
-7.78426e-15
1.78215e-13
-8.24051e-15
1.81684e-13
-8.52429e-15
1.85197e-13
-8.63807e-15
1.88687e-13
-8.5845e-15
1.92087e-13
-8.36699e-15
1.95333e-13
-7.99037e-15
1.98363e-13
-7.46133e-15
2.01119e-13
-6.78881e-15
2.03547e-13
-5.98419e-15
2.05599e-13
-5.06136e-15
2.07233e-13
-4.03659e-15
2.08416e-13
-2.92831e-15
2.09121e-13
-1.75662e-15
2.09332e-13
-5.42801e-16
2.09039e-13
6.91318e-16
2.08244e-13
1.924e-15
2.06954e-13
3.13429e-15
2.05188e-13
4.30255e-15
2.02969e-13
5.41102e-15
2.00327e-13
6.44422e-15
1.97298e-13
7.3892e-15
1.93922e-13
8.23577e-15
1.90241e-13
8.97649e-15
1.86301e-13
9.60665e-15
1.82146e-13
1.01241e-14
1.77823e-13
1.05293e-14
1.73375e-13
1.08245e-14
1.68847e-13
1.10142e-14
1.64277e-13
1.11043e-14
1.59705e-13
1.11023e-14
1.55164e-13
1.10166e-14
1.50684e-13
1.08564e-14
1.46293e-13
1.06318e-14
1.42011e-13
1.03532e-14
1.37858e-13
1.00314e-14
1.33847e-13
9.67746e-15
1.29987e-13
9.30263e-15
1.26282e-13
8.91838e-15
1.22733e-13
8.53644e-15
1.19335e-13
8.16887e-15
1.16079e-13
7.82825e-15
1.12952e-13
7.52783e-15
1.09936e-13
7.28173e-15
1.0701e-13
7.10501e-15
1.04149e-13
7.01362e-15
1.01327e-13
7.02353e-15
9.85233e-14
7.14833e-15
9.57218e-14
7.39473e-15
9.29264e-14
7.75509e-15
9.01648e-14
8.17766e-15
8.49067e-15
2.75687e-13
3.69424e-14
2.8457e-13
7.84609e-14
2.86539e-13
9.43156e-14
2.81888e-13
9.46141e-14
2.72898e-13
8.70171e-14
2.6181e-13
7.62209e-14
2.5027e-13
6.47887e-14
2.39305e-13
5.39545e-14
2.29473e-13
4.4209e-14
2.21025e-13
3.56651e-14
2.14032e-13
2.82637e-14
2.08462e-13
2.18792e-14
2.04232e-13
1.6372e-14
2.01237e-13
1.16115e-14
1.99365e-13
7.48458e-15
1.98507e-13
3.89754e-15
1.98556e-13
7.74954e-16
1.99411e-13
-1.94253e-15
2.00979e-13
-4.30067e-15
2.0317e-13
-6.33396e-15
2.05897e-13
-8.0677e-15
2.09076e-13
-9.51985e-15
2.12627e-13
-1.07027e-14
2.16467e-13
-1.16242e-14
2.20515e-13
-1.22894e-14
2.24693e-13
-1.27016e-14
2.28918e-13
-1.28636e-14
2.33112e-13
-1.27785e-14
2.37196e-13
-1.24508e-14
2.41093e-13
-1.18873e-14
2.44729e-13
-1.10976e-14
2.48035e-13
-1.00946e-14
2.50946e-13
-8.89521e-15
2.53405e-13
-7.51985e-15
2.55361e-13
-5.99269e-15
2.56773e-13
-4.34106e-15
2.57612e-13
-2.59487e-15
2.57855e-13
-7.85784e-16
2.57492e-13
1.05369e-15
2.56525e-13
2.89123e-15
2.54964e-13
4.69562e-15
2.52829e-13
6.43766e-15
2.50149e-13
8.09096e-15
2.4696e-13
9.6325e-15
2.43307e-13
1.10431e-14
2.39235e-13
1.23075e-14
2.34796e-13
1.34148e-14
2.30045e-13
1.4358e-14
2.25035e-13
1.51338e-14
2.19822e-13
1.57428e-14
2.14458e-13
1.61884e-14
2.08995e-13
1.64773e-14
2.03481e-13
1.66181e-14
1.97962e-13
1.66217e-14
1.92478e-13
1.65007e-14
1.87065e-13
1.62686e-14
1.81757e-13
1.59403e-14
1.76579e-13
1.5531e-14
1.71554e-13
1.50566e-14
1.66698e-13
1.45334e-14
1.62023e-13
1.39775e-14
1.57536e-13
1.34057e-14
1.53238e-13
1.28346e-14
1.49125e-13
1.22812e-14
1.45191e-13
1.17627e-14
1.41422e-13
1.12967e-14
1.37803e-13
1.09011e-14
1.34314e-13
1.0594e-14
1.30935e-13
1.03927e-14
1.27646e-13
1.03127e-14
1.2443e-13
1.03637e-14
1.2128e-13
1.05448e-14
1.18198e-13
1.08369e-14
1.15196e-13
1.11802e-14
1.1427e-14
2.73292e-13
3.03173e-14
2.82436e-13
6.93164e-14
2.88174e-13
8.85782e-14
2.89052e-13
9.37353e-14
2.85794e-13
9.02757e-14
2.79782e-13
8.22329e-14
2.72352e-13
7.22187e-14
2.64537e-13
6.17699e-14
2.57039e-13
5.17063e-14
2.50294e-13
4.24106e-14
2.44539e-13
3.40184e-14
2.39884e-13
2.65345e-14
2.36353e-13
1.99023e-14
2.33924e-13
1.40413e-14
2.32541e-13
8.86762e-15
2.32135e-13
4.30348e-15
2.32628e-13
2.81643e-16
2.33939e-13
-3.25348e-15
2.35984e-13
-6.34612e-15
2.38681e-13
-9.03023e-15
2.41944e-13
-1.13308e-14
2.45689e-13
-1.32655e-14
2.49832e-13
-1.48457e-14
2.54287e-13
-1.60786e-14
2.58966e-13
-1.69682e-14
2.63781e-13
-1.75167e-14
2.68643e-13
-1.77261e-14
2.73464e-13
-1.75994e-14
2.78155e-13
-1.71417e-14
2.82629e-13
-1.63613e-14
2.86802e-13
-1.52707e-14
2.90595e-13
-1.38874e-14
2.93934e-13
-1.22338e-14
2.96752e-13
-1.0338e-14
2.98992e-13
-8.23309e-15
3.00608e-13
-5.95656e-15
3.01562e-13
-3.54966e-15
3.01833e-13
-1.05607e-15
3.01407e-13
1.47935e-15
3.00286e-13
4.01197e-15
2.98483e-13
6.49875e-15
2.96021e-13
8.89946e-15
2.92935e-13
1.11778e-14
2.89265e-13
1.33021e-14
2.85062e-13
1.5246e-14
2.80381e-13
1.69888e-14
2.7528e-13
1.85155e-14
2.69821e-13
1.98166e-14
2.64067e-13
2.08877e-14
2.58081e-13
2.17296e-14
2.51922e-13
2.23471e-14
2.4565e-13
2.27493e-14
2.3932e-13
2.29481e-14
2.32983e-13
2.29584e-14
2.26687e-13
2.27972e-14
2.20472e-13
2.24832e-14
2.14376e-13
2.20365e-14
2.08429e-13
2.14779e-14
2.02657e-13
2.08288e-14
1.97079e-13
2.01112e-14
1.9171e-13
1.93469e-14
1.86558e-13
1.8558e-14
1.81626e-13
1.77665e-14
1.76912e-13
1.69943e-14
1.72412e-13
1.62634e-14
1.68113e-13
1.55953e-14
1.64003e-13
1.50115e-14
1.60064e-13
1.45322e-14
1.56281e-13
1.41759e-14
1.52637e-13
1.39568e-14
1.49119e-13
1.38819e-14
1.45718e-13
1.39458e-14
1.42431e-13
1.41243e-14
1.39251e-13
1.43602e-14
1.45345e-14
2.71634e-13
2.535e-14
2.80101e-13
6.08495e-14
2.87466e-13
8.12132e-14
2.91729e-13
8.94723e-14
2.92662e-13
8.9343e-14
2.90894e-13
8.40005e-14
2.87319e-13
7.57934e-14
2.82784e-13
6.63048e-14
2.77969e-13
5.65215e-14
2.73367e-13
4.70129e-14
2.69308e-13
3.8077e-14
2.65997e-13
2.98455e-14
2.63546e-13
2.23538e-14
2.62001e-13
1.5586e-14
2.61367e-13
9.50162e-15
2.61618e-13
4.05201e-15
2.62711e-13
-8.11012e-16
2.64588e-13
-5.13039e-15
2.67184e-13
-8.9418e-15
2.70427e-13
-1.22731e-14
2.7424e-13
-1.51446e-14
2.78545e-13
-1.75698e-14
2.83256e-13
-1.9557e-14
2.88287e-13
-2.11098e-14
2.93548e-13
-2.22294e-14
2.98947e-13
-2.29153e-14
3.04388e-13
-2.31674e-14
3.09776e-13
-2.29875e-14
3.15015e-13
-2.23804e-14
3.20009e-13
-2.13554e-14
3.24666e-13
-1.99277e-14
3.28898e-13
-1.81189e-14
3.32622e-13
-1.59578e-14
3.35764e-13
-1.34805e-14
3.38261e-13
-1.07298e-14
3.40059e-13
-7.75481e-15
3.41119e-13
-4.60946e-15
3.41414e-13
-1.35101e-15
3.40932e-13
1.96167e-15
3.39673e-13
5.27004e-15
3.37655e-13
8.51769e-15
3.34902e-13
1.1652e-14
3.31454e-13
1.46255e-14
3.27359e-13
1.73971e-14
3.22672e-13
1.99327e-14
3.17456e-13
2.22053e-14
3.11776e-13
2.41956e-14
3.05701e-13
2.58915e-14
2.99301e-13
2.72877e-14
2.92645e-13
2.83853e-14
2.85802e-13
2.9191e-14
2.78835e-13
2.97162e-14
2.71806e-13
2.9977e-14
2.64772e-13
2.99925e-14
2.57784e-13
2.97848e-14
2.50889e-13
2.93783e-14
2.44127e-13
2.87986e-14
2.37532e-13
2.80728e-14
2.31132e-13
2.72283e-14
2.24951e-13
2.62929e-14
2.19003e-13
2.52946e-14
2.133e-13
2.42612e-14
2.07846e-13
2.32199e-14
2.02643e-13
2.21979e-14
1.97685e-13
2.12216e-14
1.92963e-13
2.03166e-14
1.88467e-13
1.95073e-14
1.84183e-13
1.88162e-14
1.80097e-13
1.82626e-14
1.76193e-13
1.78606e-14
1.72459e-13
1.76158e-14
1.68883e-13
1.75218e-14
1.65453e-13
1.75547e-14
1.62148e-13
1.76653e-14
1.77636e-14
2.70543e-13
2.14732e-14
2.78136e-13
5.32566e-14
2.86016e-13
7.33331e-14
2.92205e-13
8.3284e-14
2.96e-13
8.55474e-14
2.97502e-13
8.24986e-14
2.97196e-13
7.60999e-14
2.9568e-13
6.78208e-14
2.93518e-13
5.86831e-14
2.91177e-13
4.93541e-14
2.8901e-13
4.02435e-14
2.8727e-13
3.15855e-14
2.86124e-13
2.35004e-14
2.85672e-13
1.60378e-14
2.85967e-13
9.20695e-15
2.87023e-13
2.99541e-15
2.88831e-13
-2.61844e-15
2.91358e-13
-7.65811e-15
2.94561e-13
-1.21448e-14
2.98384e-13
-1.60952e-14
3.0276e-13
-1.95207e-14
3.07617e-13
-2.24275e-14
3.12877e-13
-2.4817e-14
3.18455e-13
-2.66875e-14
3.2426e-13
-2.80347e-14
3.30199e-13
-2.88538e-14
3.36173e-13
-2.9141e-14
3.4208e-13
-2.88954e-14
3.4782e-13
-2.81202e-14
3.5329e-13
-2.68252e-14
3.5839e-13
-2.50273e-14
3.63023e-13
-2.27523e-14
3.671e-13
-2.00352e-14
3.70541e-13
-1.69207e-14
3.73273e-13
-1.34622e-14
3.7524e-13
-9.72149e-15
3.76397e-13
-5.76655e-15
3.76716e-13
-1.66989e-15
3.76183e-13
2.49401e-15
3.74802e-13
6.65103e-15
3.7259e-13
1.07299e-14
3.69578e-13
1.46643e-14
3.65809e-13
1.83946e-14
3.61336e-13
2.18694e-14
3.56223e-13
2.50459e-14
3.50537e-13
2.78911e-14
3.44352e-13
3.03811e-14
3.37742e-13
3.25012e-14
3.30785e-13
3.42453e-14
3.23555e-13
3.56152e-14
3.16126e-13
3.66196e-14
3.08569e-13
3.72732e-14
3.0095e-13
3.7596e-14
2.9333e-13
3.76124e-14
2.85765e-13
3.73499e-14
2.78305e-13
3.68388e-14
2.70992e-13
3.61111e-14
2.63865e-13
3.52002e-14
2.56953e-13
3.414e-14
2.50281e-13
3.29647e-14
2.43868e-13
3.17083e-14
2.37724e-13
3.04045e-14
2.31858e-13
2.90862e-14
2.2627e-13
2.77855e-14
2.20959e-13
2.65332e-14
2.15916e-13
2.53589e-14
2.11134e-13
2.429e-14
2.06598e-13
2.33513e-14
2.02298e-13
2.25635e-14
1.98217e-13
2.19414e-14
1.94341e-13
2.14915e-14
1.90654e-13
2.12088e-14
1.87135e-13
2.10736e-14
1.83753e-13
2.10473e-14
2.10674e-14
2.6982e-13
1.83201e-14
2.76598e-13
4.64787e-14
2.84459e-13
6.54722e-14
2.91656e-13
7.6087e-14
2.97311e-13
7.98924e-14
3.01199e-13
7.86107e-14
3.03492e-13
7.38067e-14
3.04553e-13
6.67595e-14
3.04798e-13
5.8438e-14
3.04618e-13
4.95341e-14
3.04344e-13
4.0518e-14
3.04235e-13
3.16946e-14
3.04484e-13
2.32513e-14
3.05225e-13
1.52963e-14
3.06545e-13
7.88686e-15
3.08492e-13
1.04881e-15
3.11083e-13
-5.20936e-15
3.14312e-13
-1.08876e-14
3.18156e-13
-1.59883e-14
3.22574e-13
-2.05131e-14
3.27514e-13
-2.4461e-14
3.32914e-13
-2.78274e-14
3.38702e-13
-3.06047e-14
3.44797e-13
-3.27825e-14
3.51111e-13
-3.43494e-14
3.57552e-13
-3.52939e-14
3.64017e-13
-3.56069e-14
3.70405e-13
-3.52829e-14
3.76607e-13
-3.43225e-14
3.82516e-13
-3.27344e-14
3.88026e-13
-3.05367e-14
3.93032e-13
-2.77587e-14
3.97439e-13
-2.44416e-14
4.01157e-13
-2.06387e-14
4.0411e-13
-1.64152e-14
4.06234e-13
-1.18464e-14
4.07484e-13
-7.01594e-15
4.07827e-13
-2.0132e-15
4.07251e-13
3.06993e-15
4.0576e-13
8.14213e-15
4.03374e-13
1.31157e-14
4.00129e-13
1.79093e-14
3.96074e-13
2.24502e-14
3.91267e-13
2.66757e-14
3.85779e-13
3.05346e-14
3.79683e-13
3.39871e-14
3.73059e-13
3.70049e-14
3.65989e-13
3.95711e-14
3.58555e-13
4.16789e-14
3.50839e-13
4.33313e-14
3.42919e-13
4.45393e-14
3.34871e-13
4.53216e-14
3.26764e-13
4.57027e-14
3.18665e-13
4.57123e-14
3.1063e-13
4.53841e-14
3.02714e-13
4.47548e-14
2.94962e-13
4.3863e-14
2.87414e-13
4.27489e-14
2.80101e-13
4.14531e-14
2.73049e-13
4.00164e-14
2.66278e-13
3.84793e-14
2.59801e-13
3.68811e-14
2.53627e-13
3.52606e-14
2.47758e-13
3.36547e-14
2.42192e-13
3.20988e-14
2.36925e-13
3.06263e-14
2.31947e-13
2.92679e-14
2.27247e-13
2.80508e-14
2.22813e-13
2.69978e-14
2.18629e-13
2.61257e-14
2.14677e-13
2.54433e-14
2.10936e-13
2.49495e-14
2.0738e-13
2.46305e-14
2.03967e-13
2.44595e-14
2.43999e-14
2.69324e-13
1.5663e-14
2.75408e-13
4.03948e-14
2.83011e-13
5.7869e-14
2.90661e-13
6.84366e-14
2.97462e-13
7.30916e-14
3.03016e-13
7.30566e-14
3.07281e-13
6.95415e-14
3.10428e-13
6.36126e-14
3.12729e-13
5.61375e-14
3.14481e-13
4.77818e-14
3.15965e-13
3.90336e-14
3.17423e-13
3.02366e-14
3.1905e-13
2.16251e-14
3.20992e-13
1.33535e-14
3.23359e-13
5.52059e-15
3.26219e-13
-1.81159e-15
3.29614e-13
-8.60429e-15
3.33559e-13
-1.48322e-14
3.38047e-13
-2.04768e-14
3.43056e-13
-2.55221e-14
3.48547e-13
-2.99518e-14
3.54468e-13
-3.37482e-14
3.60755e-13
-3.68918e-14
3.67334e-13
-3.93618e-14
3.74122e-13
-4.1137e-14
3.81025e-13
-4.21976e-14
3.87945e-13
-4.25268e-14
3.94775e-13
-4.21131e-14
4.01406e-13
-4.09526e-14
4.07723e-13
-3.90516e-14
4.13614e-13
-3.64281e-14
4.1897e-13
-3.31142e-14
4.23685e-13
-2.9157e-14
4.27666e-13
-2.4619e-14
4.30827e-13
-1.95771e-14
4.33103e-13
-1.4122e-14
4.34441e-13
-8.35424e-15
4.3481e-13
-2.38202e-15
4.34197e-13
3.6835e-15
4.32607e-13
9.73191e-15
4.30065e-13
1.56575e-14
4.26612e-13
2.13627e-14
4.22301e-13
2.67606e-14
4.172e-13
3.17771e-14
4.11383e-13
3.63517e-14
4.04931e-13
4.04382e-14
3.97932e-13
4.40043e-14
3.90472e-13
4.70308e-14
3.8264e-13
4.95112e-14
3.74522e-13
5.14498e-14
3.662e-13
5.28609e-14
3.57754e-13
5.37671e-14
3.49259e-13
5.41984e-14
3.40781e-13
5.41903e-14
3.32382e-13
5.37829e-14
3.24117e-13
5.30198e-14
3.16033e-13
5.19467e-14
3.08171e-13
5.06108e-14
3.00565e-13
4.90598e-14
2.9324e-13
4.73412e-14
2.86217e-13
4.55018e-14
2.79511e-13
4.35873e-14
2.7313e-13
4.16417e-14
2.67078e-13
3.97071e-14
2.61353e-13
3.78235e-14
2.55952e-13
3.6028e-14
2.50865e-13
3.43547e-14
2.46082e-13
3.28339e-14
2.41588e-13
3.1491e-14
2.37368e-13
3.03458e-14
2.33401e-13
2.94108e-14
2.29661e-13
2.86898e-14
2.26114e-13
2.81765e-14
2.22718e-13
2.78561e-14
2.77159e-14
2.68969e-13
1.33611e-14
2.74474e-13
3.4889e-14
2.81722e-13
5.06209e-14
2.89493e-13
6.0666e-14
2.96945e-13
6.56394e-14
3.03608e-13
6.63941e-14
3.09305e-13
6.38447e-14
3.14064e-13
5.88529e-14
3.18036e-13
5.21653e-14
3.21428e-13
4.43906e-14
3.24458e-13
3.60033e-14
3.27335e-13
2.736e-14
3.30238e-13
1.87216e-14
3.33317e-13
1.02749e-14
3.36685e-13
2.15174e-15
3.40429e-13
-5.55489e-15
3.44603e-13
-1.27782e-14
3.49239e-13
-1.94683e-14
3.54347e-13
-2.55851e-14
3.59918e-13
-3.10934e-14
3.65927e-13
-3.59605e-14
3.72332e-13
-4.01534e-14
3.7908e-13
-4.3639e-14
3.86102e-13
-4.63839e-14
3.9332e-13
-4.83554e-14
4.00645e-13
-4.95229e-14
4.07979e-13
-4.98604e-14
4.15214e-13
-4.93482e-14
4.22238e-13
-4.79762e-14
4.28932e-13
-4.57464e-14
4.3518e-13
-4.26755e-14
4.40863e-13
-3.87974e-14
4.4587e-13
-3.41644e-14
4.50099e-13
-2.8848e-14
4.5346e-13
-2.29383e-14
4.5588e-13
-1.65419e-14
4.57305e-13
-9.77869e-15
4.577e-13
-2.77732e-15
4.57054e-13
4.32948e-15
4.55376e-13
1.14102e-14
4.52694e-13
1.83395e-14
4.49054e-13
2.50022e-14
4.44519e-13
3.12965e-14
4.39159e-13
3.71363e-14
4.33059e-13
4.2452e-14
4.26306e-13
4.71913e-14
4.18992e-13
5.1318e-14
4.11211e-13
5.48119e-14
4.03056e-13
5.76666e-14
3.94617e-13
5.98889e-14
3.85981e-13
6.14966e-14
3.77231e-13
6.25173e-14
3.68443e-13
6.29865e-14
3.59687e-13
6.29462e-14
3.51026e-13
6.24436e-14
3.42517e-13
6.15293e-14
3.34207e-13
6.02566e-14
3.26137e-13
5.868e-14
3.18343e-13
5.68544e-14
3.1085e-13
5.48342e-14
3.03679e-13
5.26728e-14
2.96844e-13
5.0422e-14
2.90354e-13
4.81312e-14
2.84214e-13
4.58478e-14
2.78421e-13
4.36161e-14
2.72972e-13
4.14773e-14
2.67858e-13
3.9469e-14
2.63067e-13
3.76247e-14
2.58584e-13
3.59734e-14
2.54392e-13
3.45382e-14
2.50466e-13
3.33364e-14
2.46778e-13
3.23779e-14
2.43291e-13
3.1664e-14
2.39955e-13
3.11914e-14
3.09704e-14
2.68702e-13
1.13259e-14
2.73722e-13
2.98685e-14
2.80581e-13
4.3762e-14
2.88271e-13
5.29767e-14
2.96033e-13
5.78771e-14
3.03381e-13
5.90464e-14
3.10063e-13
5.71619e-14
3.16012e-13
5.29041e-14
3.21281e-13
4.68964e-14
3.25996e-13
3.96754e-14
3.30318e-13
3.16816e-14
3.34413e-13
2.3265e-14
3.38438e-13
1.46962e-14
3.42532e-13
6.18107e-15
3.46809e-13
-2.12497e-15
3.51358e-13
-1.01042e-14
3.56246e-13
-1.76659e-14
3.61515e-13
-2.47375e-14
3.67188e-13
-3.12582e-14
3.73269e-13
-3.71738e-14
3.79742e-13
-4.24339e-14
3.86578e-13
-4.69897e-14
3.93732e-13
-5.07928e-14
4.01144e-13
-5.37958e-14
4.08741e-13
-5.59526e-14
4.16439e-13
-5.72203e-14
4.2414e-13
-5.75612e-14
4.31737e-13
-5.69458e-14
4.39117e-13
-5.53556e-14
4.46157e-13
-5.27863e-14
4.52733e-13
-4.92517e-14
4.58721e-13
-4.4786e-14
4.64003e-13
-3.9446e-14
4.68467e-13
-3.33125e-14
4.72018e-13
-2.6489e-14
4.74576e-13
-1.90999e-14
4.76083e-13
-1.1286e-14
4.76505e-13
-3.19926e-15
4.75831e-13
5.00368e-15
4.74073e-13
1.3168e-14
4.71266e-13
2.11469e-14
4.67462e-13
2.88061e-14
4.6273e-13
3.60286e-14
4.5715e-13
4.27159e-14
4.50813e-13
4.87899e-14
4.43811e-13
5.41923e-14
4.36245e-13
5.88843e-14
4.28212e-13
6.28447e-14
4.1981e-13
6.60686e-14
4.11134e-13
6.85658e-14
4.02272e-13
7.03583e-14
3.9331e-13
7.14791e-14
3.84326e-13
7.19701e-14
3.75392e-13
7.18802e-14
3.66572e-13
7.12638e-14
3.57922e-13
7.01795e-14
3.49491e-13
6.8688e-14
3.41319e-13
6.68516e-14
3.33441e-13
6.47326e-14
3.25883e-13
6.23924e-14
3.18664e-13
5.9891e-14
3.118e-13
5.72864e-14
3.05298e-13
5.46335e-14
2.99161e-13
5.19847e-14
2.93388e-13
4.93888e-14
2.87974e-13
4.6891e-14
2.82911e-13
4.45327e-14
2.78184e-13
4.23511e-14
2.73779e-13
4.03785e-14
2.69675e-13
3.86425e-14
2.65846e-13
3.71653e-14
2.62261e-13
3.59634e-14
2.58879e-13
3.50457e-14
2.5565e-13
3.44204e-14
3.4119e-14
2.68492e-13
9.50082e-15
2.73095e-13
2.52649e-14
2.79557e-13
3.73006e-14
2.87038e-13
4.5495e-14
2.94872e-13
5.00436e-14
3.02586e-13
5.13327e-14
3.09894e-13
4.98536e-14
3.16666e-13
4.61322e-14
3.22886e-13
4.06768e-14
3.28614e-13
3.39467e-14
3.33958e-13
2.63377e-14
3.39044e-13
1.81793e-14
3.44001e-13
9.73892e-15
3.48952e-13
1.23026e-15
3.54004e-13
-7.17672e-15
3.59246e-13
-1.53463e-14
3.64748e-13
-2.31684e-14
3.70562e-13
-3.0551e-14
3.76718e-13
-3.74141e-14
3.8323e-13
-4.36857e-14
3.90093e-13
-4.92978e-14
3.97289e-13
-5.41852e-14
4.0478e-13
-5.82836e-14
4.12514e-13
-6.15302e-14
4.20426e-13
-6.38644e-14
4.28435e-13
-6.52291e-14
4.36447e-13
-6.55734e-14
4.44357e-13
-6.48555e-14
4.52047e-13
-6.30462e-14
4.59394e-13
-6.01333e-14
4.66267e-13
-5.6125e-14
4.72536e-13
-5.10544e-14
4.78072e-13
-4.49819e-14
4.82756e-13
-3.7997e-14
4.86485e-13
-3.02177e-14
4.89173e-13
-2.17876e-14
4.90758e-13
-1.28712e-14
4.91205e-13
-3.64645e-15
4.90506e-13
5.7032e-15
4.88676e-13
1.49971e-14
4.85759e-13
2.40648e-14
4.81812e-13
3.27523e-14
4.76915e-13
4.09262e-14
4.71154e-13
4.84765e-14
4.64627e-13
5.53168e-14
4.57435e-13
6.1384e-14
4.49682e-13
6.66373e-14
4.41471e-13
7.10559e-14
4.32903e-13
7.46371e-14
4.24074e-13
7.73943e-14
4.15078e-13
7.93546e-14
4.06e-13
8.0557e-14
3.9692e-13
8.10501e-14
3.8791e-13
8.08903e-14
3.79034e-13
8.01399e-14
3.70348e-13
7.88653e-14
3.61901e-13
7.71355e-14
3.53732e-13
7.50205e-14
3.45874e-13
7.25902e-14
3.38353e-13
6.99132e-14
3.31188e-13
6.70563e-14
3.24391e-13
6.40832e-14
3.1797e-13
6.10547e-14
3.11927e-13
5.8028e-14
3.06259e-13
5.50563e-14
3.00961e-13
5.21889e-14
2.96023e-13
4.9471e-14
2.91431e-13
4.69434e-14
2.87167e-13
4.46425e-14
2.83209e-13
4.26001e-14
2.7953e-13
4.08438e-14
2.76097e-13
3.93967e-14
2.72867e-13
3.82754e-14
2.69789e-13
3.74986e-14
3.7118e-14
2.68318e-13
7.84947e-15
2.72553e-13
2.10301e-14
2.78616e-13
3.1237e-14
2.85807e-13
3.83041e-14
2.93541e-13
4.23098e-14
3.01377e-13
4.34963e-14
3.09021e-13
4.22099e-14
3.16306e-13
3.88477e-14
3.23167e-13
3.38152e-14
3.29617e-13
2.74968e-14
3.35716e-13
2.02384e-14
3.41555e-13
1.23407e-14
3.47235e-13
4.05854e-15
3.52861e-13
-4.39525e-15
3.58528e-13
-1.2844e-14
3.64322e-13
-2.11404e-14
3.70313e-13
-2.91597e-14
3.76556e-13
-3.6794e-14
3.83089e-13
-4.39468e-14
3.89933e-13
-5.05294e-14
3.97092e-13
-5.64573e-14
4.04556e-13
-6.16489e-14
4.12296e-13
-6.60239e-14
4.2027e-13
-6.95035e-14
4.28417e-13
-7.20114e-14
4.36662e-13
-7.34749e-14
4.44917e-13
-7.38281e-14
4.53077e-13
-7.30149e-14
4.61024e-13
-7.09932e-14
4.6863e-13
-6.774e-14
4.75761e-13
-6.32559e-14
4.82277e-13
-5.75706e-14
4.88042e-13
-5.07465e-14
4.92926e-13
-4.28815e-14
4.96818e-13
-3.41088e-14
4.99623e-13
-2.45935e-14
5.01279e-13
-1.45264e-14
5.01747e-13
-4.11519e-15
5.01024e-13
6.42667e-15
4.99131e-13
1.68897e-14
4.96118e-13
2.70778e-14
4.92055e-13
3.68161e-14
4.87026e-13
4.59551e-14
4.81129e-13
5.43735e-14
4.74467e-13
6.19781e-14
4.67149e-13
6.87023e-14
4.59282e-13
7.45044e-14
4.50973e-13
7.93652e-14
4.42325e-13
8.32851e-14
4.33437e-13
8.6282e-14
4.24403e-13
8.83885e-14
4.1531e-13
8.96503e-14
4.06237e-13
9.01231e-14
3.97256e-13
8.98712e-14
3.88431e-13
8.89651e-14
3.79817e-13
8.74795e-14
3.7146e-13
8.54919e-14
3.634e-13
8.30803e-14
3.55668e-13
8.03224e-14
3.48287e-13
7.72941e-14
3.41275e-13
7.40687e-14
3.34642e-13
7.0716e-14
3.28394e-13
6.73024e-14
3.22533e-13
6.38896e-14
3.17054e-13
6.05354e-14
3.1195e-13
5.7293e-14
3.07209e-13
5.42112e-14
3.02818e-13
5.13346e-14
2.98757e-13
4.87036e-14
2.95003e-13
4.63544e-14
2.91527e-13
4.432e-14
2.88294e-13
4.26298e-14
2.85261e-13
4.13076e-14
2.82378e-13
4.03823e-14
3.99244e-14
2.68168e-13
6.34816e-15
2.72066e-13
1.71321e-14
2.77732e-13
2.55712e-14
2.84573e-13
3.1463e-14
2.9208e-13
3.48028e-14
2.99851e-13
3.57256e-14
3.07596e-13
3.44646e-14
3.15132e-13
3.13118e-14
3.22364e-13
2.65832e-14
3.29267e-13
2.05934e-14
3.35868e-13
1.36381e-14
3.42223e-13
5.98512e-15
3.48411e-13
-2.1294e-15
3.54516e-13
-1.05003e-14
3.60622e-13
-1.89504e-14
3.66808e-13
-2.73262e-14
3.73142e-13
-3.54931e-14
3.79679e-13
-4.33309e-14
3.86461e-13
-5.07294e-14
3.93517e-13
-5.75848e-14
4.00857e-13
-6.37978e-14
4.08479e-13
-6.92709e-14
4.16363e-13
-7.39081e-14
4.24474e-13
-7.76143e-14
4.3276e-13
-8.02967e-14
4.41151e-13
-8.18662e-14
4.49563e-13
-8.22403e-14
4.57895e-13
-8.13465e-14
4.66029e-13
-7.91274e-14
4.73835e-13
-7.55463e-14
4.81173e-13
-7.05934e-14
4.87894e-13
-6.42922e-14
4.93853e-13
-5.67054e-14
4.9891e-13
-4.79385e-14
5.02942e-13
-3.81405e-14
5.05849e-13
-2.75004e-14
5.07562e-13
-1.62393e-14
5.08045e-13
-4.59847e-15
5.07297e-13
7.17433e-15
5.05349e-13
1.88378e-14
5.02259e-13
3.0168e-14
4.98107e-13
4.09683e-14
4.92988e-13
5.10739e-14
4.87008e-13
6.03537e-14
4.80277e-13
6.87093e-14
4.72907e-13
7.60723e-14
4.65009e-13
8.24019e-14
4.56693e-13
8.76814e-14
4.48063e-13
9.19155e-14
4.39218e-13
9.5127e-14
4.30251e-13
9.73548e-14
4.21251e-13
9.8651e-14
4.12294e-13
9.90793e-14
4.03454e-13
9.8712e-14
3.9479e-13
9.76282e-14
3.86359e-13
9.59114e-14
3.78203e-13
9.36474e-14
3.7036e-13
9.09229e-14
3.6286e-13
8.78233e-14
3.55722e-13
8.44318e-14
3.48962e-13
8.08284e-14
3.42589e-13
7.70889e-14
3.36607e-13
7.32848e-14
3.31014e-13
6.94827e-14
3.25805e-13
6.57443e-14
3.20971e-13
6.21268e-14
3.165e-13
5.86825e-14
3.12375e-13
5.54595e-14
3.08577e-13
5.2502e-14
3.0508e-13
4.98505e-14
3.01857e-13
4.75432e-14
2.98871e-13
4.56155e-14
2.96081e-13
4.40981e-14
2.93434e-13
4.30289e-14
4.24964e-14
2.68033e-13
4.98162e-15
2.71615e-13
1.35501e-14
2.76881e-13
2.03051e-14
2.83327e-13
2.50169e-14
2.9051e-13
2.76202e-14
2.98067e-13
2.81691e-14
3.05723e-13
2.68084e-14
3.1329e-13
2.37443e-14
3.20657e-13
1.92167e-14
3.27773e-13
1.34775e-14
3.34637e-13
6.77406e-15
3.41282e-13
-6.6e-16
3.47763e-13
-8.61068e-15
3.54148e-13
-1.6885e-14
3.60508e-13
-2.53101e-14
3.66912e-13
-3.37311e-14
3.73427e-13
-4.20075e-14
3.80106e-13
-5.00102e-14
3.86995e-13
-5.76178e-14
3.94124e-13
-6.47145e-14
4.01513e-13
-7.11868e-14
4.09165e-13
-7.6923e-14
4.17069e-13
-8.18117e-14
4.25196e-13
-8.57419e-14
4.33504e-13
-8.86042e-14
4.4193e-13
-9.02922e-14
4.50395e-13
-9.07054e-14
4.58802e-13
-8.97533e-14
4.67035e-13
-8.73608e-14
4.74963e-13
-8.34744e-14
4.8244e-13
-7.80703e-14
4.8931e-13
-7.11626e-14
4.95417e-13
-6.28116e-14
5.00607e-13
-5.31293e-14
5.04748e-13
-4.22813e-14
5.07731e-13
-3.04832e-14
5.09483e-13
-1.7991e-14
5.09969e-13
-5.0851e-15
5.09195e-13
7.94815e-15
5.07201e-13
2.0832e-14
5.04056e-13
3.33128e-14
4.99853e-13
4.51716e-14
4.94697e-13
5.62302e-14
4.887e-13
6.63504e-14
4.81979e-13
7.54307e-14
4.74647e-13
8.34035e-14
4.66819e-13
9.02303e-14
4.58602e-13
9.58986e-14
4.501e-13
1.00417e-13
4.41411e-13
1.03815e-13
4.32629e-13
1.06137e-13
4.23838e-13
1.07442e-13
4.15117e-13
1.07801e-13
4.06533e-13
1.07295e-13
3.98149e-13
1.06013e-13
3.90015e-13
1.04045e-13
3.82174e-13
1.01489e-13
3.74659e-13
9.84371e-14
3.67498e-13
9.49847e-14
3.60708e-13
9.12218e-14
3.54302e-13
8.72349e-14
3.48285e-13
8.31058e-14
3.42658e-13
7.8911e-14
3.3742e-13
7.47215e-14
3.32561e-13
7.06029e-14
3.28072e-13
6.66158e-14
3.23939e-13
6.28159e-14
3.20144e-13
5.92546e-14
3.16666e-13
5.59795e-14
3.13481e-13
5.30352e-14
3.1056e-13
5.04645e-14
3.07867e-13
4.83084e-14
3.05361e-13
4.66039e-14
3.02993e-13
4.53974e-14
4.47939e-14
2.67908e-13
3.74022e-15
2.71186e-13
1.0272e-14
2.76048e-13
1.54433e-14
2.82062e-13
1.9003e-14
2.88842e-13
2.084e-14
2.96065e-13
2.09465e-14
3.03475e-13
1.93979e-14
3.10889e-13
1.63306e-14
3.18185e-13
1.19204e-14
3.25299e-13
6.36367e-15
3.32209e-13
-1.36538e-16
3.3893e-13
-7.38052e-15
3.45497e-13
-1.5178e-14
3.51963e-13
-2.3351e-14
3.58388e-13
-3.17345e-14
3.64832e-13
-4.01757e-14
3.71357e-13
-4.85319e-14
3.78015e-13
-5.66682e-14
3.84852e-13
-6.44549e-14
3.91903e-13
-7.17657e-14
3.99192e-13
-7.84755e-14
4.06728e-13
-8.44594e-14
4.14508e-13
-8.95916e-14
4.22512e-13
-9.3746e-14
4.30704e-13
-9.67965e-14