/*--------------------------------*- C++ -*----------------------------------*\
  =========                 |
  \\      /  F ield         | OpenFOAM: The Open Source CFD Toolbox
   \\    /   O peration     | Website:  https://openfoam.org
    \\  /    A nd           | Version:  7
     \\/     M anipulation  |
\*---------------------------------------------------------------------------*/
FoamFile
{
    version     2.0;
    format      ascii;
    class       volVectorField;
    location    "30";
    object      U;
}
// * * * * * * * * * * * * * * * * * * * * * * * * * * * * * * * * * * * * * //

dimensions      [0 1 -1 0 0 0 0];

internalField   nonuniform List<vector> 
5625
(
(0.000695126 0.000147122 0)
(0.000593273 0.000127788 0)
(0.000428952 7.49115e-05 0)
(0.000310996 4.2178e-05 0)
(0.000241654 2.44407e-05 0)
(0.000198004 1.47992e-05 0)
(0.000168416 9.44551e-06 0)
(0.000147588 6.34675e-06 0)
(0.000132515 4.44233e-06 0)
(0.000121384 3.1935e-06 0)
(0.000113083 2.32463e-06 0)
(0.000106901 1.6894e-06 0)
(0.000102358 1.20618e-06 0)
(9.9118e-05 8.26856e-07 0)
(9.69343e-05 5.21703e-07 0)
(9.56224e-05 2.71429e-07 0)
(9.50395e-05 6.32019e-08 0)
(9.50716e-05 -1.11829e-07 0)
(9.56257e-05 -2.59725e-07 0)
(9.66231e-05 -3.84787e-07 0)
(9.79957e-05 -4.89906e-07 0)
(9.96825e-05 -5.77141e-07 0)
(0.000101627 -6.47753e-07 0)
(0.000103777 -7.02645e-07 0)
(0.000106082 -7.4225e-07 0)
(0.000108492 -7.66931e-07 0)
(0.000110959 -7.76793e-07 0)
(0.000113435 -7.72078e-07 0)
(0.000115872 -7.52918e-07 0)
(0.000118225 -7.19744e-07 0)
(0.00012045 -6.7298e-07 0)
(0.000122504 -6.13456e-07 0)
(0.000124347 -5.42052e-07 0)
(0.000125944 -4.60093e-07 0)
(0.000127263 -3.68952e-07 0)
(0.000128277 -2.70407e-07 0)
(0.000128966 -1.66224e-07 0)
(0.000129314 -5.84688e-08 0)
(0.000129314 5.09106e-08 0)
(0.000128961 1.59809e-07 0)
(0.000128262 2.66354e-07 0)
(0.000127226 3.68664e-07 0)
(0.000125868 4.65181e-07 0)
(0.000124208 5.54446e-07 0)
(0.000122271 6.35369e-07 0)
(0.000120085 7.07017e-07 0)
(0.000117679 7.68833e-07 0)
(0.000115086 8.20412e-07 0)
(0.000112337 8.61703e-07 0)
(0.000109465 8.92765e-07 0)
(0.000106503 9.13966e-07 0)
(0.000103482 9.25727e-07 0)
(0.00010043 9.28728e-07 0)
(9.73747e-05 9.23633e-07 0)
(9.43413e-05 9.11332e-07 0)
(9.13517e-05 8.92632e-07 0)
(8.84253e-05 8.68542e-07 0)
(8.55783e-05 8.39944e-07 0)
(8.2824e-05 8.07912e-07 0)
(8.01723e-05 7.73367e-07 0)
(7.763e-05 7.37436e-07 0)
(7.52006e-05 7.01102e-07 0)
(7.28838e-05 6.65601e-07 0)
(7.06758e-05 6.32092e-07 0)
(6.85689e-05 6.02111e-07 0)
(6.65504e-05 5.77324e-07 0)
(6.46024e-05 5.60143e-07 0)
(6.26999e-05 5.53813e-07 0)
(6.08079e-05 5.63781e-07 0)
(5.88757e-05 5.98986e-07 0)
(5.68352e-05 6.74445e-07 0)
(5.46038e-05 8.18395e-07 0)
(5.19513e-05 1.09932e-06 0)
(4.81293e-05 1.62339e-06 0)
(4.34038e-05 2.27477e-06 0)
(0.000985726 0.000289474 0)
(0.000967989 0.000304555 0)
(0.000841127 0.000216661 0)
(0.000707896 0.000145806 0)
(0.000601821 9.85093e-05 0)
(0.000520295 6.78194e-05 0)
(0.000457867 4.79068e-05 0)
(0.000410192 3.46978e-05 0)
(0.00037373 2.56154e-05 0)
(0.000345785 1.91229e-05 0)
(0.000324406 1.43107e-05 0)
(0.000308183 1.06289e-05 0)
(0.000296085 7.73511e-06 0)
(0.000287342 5.40905e-06 0)
(0.000281369 3.50461e-06 0)
(0.000277711 1.92247e-06 0)
(0.000276007 5.93444e-07 0)
(0.000275964 -5.31082e-07 0)
(0.000277338 -1.4858e-06 0)
(0.000279921 -2.29517e-06 0)
(0.000283527 -2.97664e-06 0)
(0.000287992 -3.54215e-06 0)
(0.000293164 -4.00001e-06 0)
(0.000298897 -4.35548e-06 0)
(0.000305053 -4.61221e-06 0)
(0.000311497 -4.7723e-06 0)
(0.000318097 -4.83758e-06 0)
(0.000324722 -4.80941e-06 0)
(0.000331245 -4.68988e-06 0)
(0.000337542 -4.48142e-06 0)
(0.000343492 -4.18789e-06 0)
(0.000348982 -3.81401e-06 0)
(0.000353906 -3.36632e-06 0)
(0.000358167 -2.85238e-06 0)
(0.000361681 -2.28158e-06 0)
(0.000364377 -1.6641e-06 0)
(0.000366198 -1.01155e-06 0)
(0.000367104 -3.35806e-07 0)
(0.000367071 3.50532e-07 0)
(0.000366093 1.03531e-06 0)
(0.000364178 1.70645e-06 0)
(0.000361354 2.35301e-06 0)
(0.000357659 2.9648e-06 0)
(0.000353146 3.53326e-06 0)
(0.000347879 4.05104e-06 0)
(0.000341931 4.51265e-06 0)
(0.00033538 4.91392e-06 0)
(0.000328311 5.25251e-06 0)
(0.000320809 5.52735e-06 0)
(0.000312963 5.73894e-06 0)
(0.000304857 5.88878e-06 0)
(0.000296575 5.97969e-06 0)
(0.000288195 6.01512e-06 0)
(0.000279791 5.99954e-06 0)
(0.00027143 5.93772e-06 0)
(0.000263172 5.83521e-06 0)
(0.00025507 5.69755e-06 0)
(0.00024717 5.53091e-06 0)
(0.000239508 5.34127e-06 0)
(0.000232111 5.13517e-06 0)
(0.000224998 4.91892e-06 0)
(0.000218181 4.69948e-06 0)
(0.00021166 4.48371e-06 0)
(0.000205427 4.27946e-06 0)
(0.000199461 4.09498e-06 0)
(0.000193733 3.94031e-06 0)
(0.000188199 3.82721e-06 0)
(0.0001828 3.77143e-06 0)
(0.000177459 3.79425e-06 0)
(0.000172073 3.927e-06 0)
(0.000166524 4.21382e-06 0)
(0.000160703 4.723e-06 0)
(0.000154369 5.58203e-06 0)
(0.00014666 6.92819e-06 0)
(0.000138491 8.35641e-06 0)
(0.00102835 0.000252573 0)
(0.00105541 0.000355747 0)
(0.00100668 0.000317258 0)
(0.000922232 0.000252727 0)
(0.000833353 0.000193489 0)
(0.000752332 0.000146322 0)
(0.000683053 0.000110754 0)
(0.000625868 8.4285e-05 0)
(0.000579609 6.44417e-05 0)
(0.0005427 4.93257e-05 0)
(0.000513631 3.75905e-05 0)
(0.000491107 2.83028e-05 0)
(0.000474057 2.08183e-05 0)
(0.000461613 1.46889e-05 0)
(0.000453072 9.59932e-06 0)
(0.000447858 5.32529e-06 0)
(0.000445497 1.70579e-06 0)
(0.00044559 -1.37586e-06 0)
(0.000447795 -4.00385e-06 0)
(0.000451815 -6.23925e-06 0)
(0.00045738 -8.12537e-06 0)
(0.000464248 -9.693e-06 0)
(0.000472188 -1.09629e-05 0)
(0.000480984 -1.19495e-05 0)
(0.000490423 -1.26618e-05 0)
(0.000500302 -1.31064e-05 0)
(0.000510416 -1.32876e-05 0)
(0.000520567 -1.32106e-05 0)
(0.000530559 -1.28805e-05 0)
(0.000540201 -1.23054e-05 0)
(0.000549311 -1.14954e-05 0)
(0.000557712 -1.04646e-05 0)
(0.000565242 -9.23042e-06 0)
(0.000571755 -7.81457e-06 0)
(0.00057712 -6.24189e-06 0)
(0.000581227 -4.54119e-06 0)
(0.00058399 -2.74321e-06 0)
(0.000585348 -8.81194e-07 0)
(0.000585262 1.01141e-06 0)
(0.000583722 2.9007e-06 0)
(0.000580743 4.75455e-06 0)
(0.000576361 6.54235e-06 0)
(0.000570637 8.23693e-06 0)
(0.000563651 9.81418e-06 0)
(0.000555499 1.12544e-05 0)
(0.00054629 1.25417e-05 0)
(0.000536147 1.36651e-05 0)
(0.000525195 1.46172e-05 0)
(0.000513567 1.53951e-05 0)
(0.000501396 1.59995e-05 0)
(0.000488812 1.64346e-05 0)
(0.000475942 1.67071e-05 0)
(0.000462908 1.68268e-05 0)
(0.000449823 1.6805e-05 0)
(0.000436789 1.66553e-05 0)
(0.000423901 1.63921e-05 0)
(0.00041124 1.6031e-05 0)
(0.000398876 1.55883e-05 0)
(0.000386866 1.50811e-05 0)
(0.000375254 1.45264e-05 0)
(0.000364073 1.39423e-05 0)
(0.000353338 1.3347e-05 0)
(0.000343055 1.27598e-05 0)
(0.000333212 1.22005e-05 0)
(0.000323786 1.16915e-05 0)
(0.000314735 1.12568e-05 0)
(0.000306005 1.09249e-05 0)
(0.00029752 1.07291e-05 0)
(0.00028919 1.07112e-05 0)
(0.000280903 1.09224e-05 0)
(0.000272543 1.14245e-05 0)
(0.000264054 1.22865e-05 0)
(0.000255287 1.35864e-05 0)
(0.000245369 1.52961e-05 0)
(0.000235348 1.67783e-05 0)
(0.00102592 0.000195973 0)
(0.00106445 0.000344132 0)
(0.00106367 0.000359284 0)
(0.0010259 0.000321518 0)
(0.000968827 0.000269009 0)
(0.00090644 0.000217942 0)
(0.000846557 0.000173898 0)
(0.000792905 0.000137699 0)
(0.000746821 0.000108449 0)
(0.000708394 8.48624e-05 0)
(0.00067714 6.57374e-05 0)
(0.00065236 5.00885e-05 0)
(0.000633321 3.71495e-05 0)
(0.00061933 2.63396e-05 0)
(0.000609765 1.72225e-05 0)
(0.000604073 9.47231e-06 0)
(0.000601774 2.84552e-06 0)
(0.00060244 -2.83874e-06 0)
(0.000605693 -7.71474e-06 0)
(0.00061119 -1.18805e-05 0)
(0.000618614 -1.54075e-05 0)
(0.000627672 -1.83456e-05 0)
(0.000638082 -2.07299e-05 0)
(0.000649573 -2.25835e-05 0)
(0.000661878 -2.39222e-05 0)
(0.000674737 -2.47562e-05 0)
(0.000687891 -2.50939e-05 0)
(0.000701084 -2.49435e-05 0)
(0.000714064 -2.43158e-05 0)
(0.000726585 -2.32247e-05 0)
(0.000738409 -2.16905e-05 0)
(0.00074931 -1.97388e-05 0)
(0.000759077 -1.74034e-05 0)
(0.000767518 -1.47243e-05 0)
(0.000774465 -1.17494e-05 0)
(0.000779774 -8.5317e-06 0)
(0.000783334 -5.13029e-06 0)
(0.000785063 -1.60657e-06 0)
(0.000784913 1.97553e-06 0)
(0.000782868 5.55325e-06 0)
(0.000778948 9.0652e-06 0)
(0.0007732 1.24547e-05 0)
(0.000765702 1.56696e-05 0)
(0.000756556 1.86654e-05 0)
(0.000745889 2.14041e-05 0)
(0.000733841 2.38562e-05 0)
(0.000720568 2.6e-05 0)
(0.000706236 2.78221e-05 0)
(0.000691015 2.93161e-05 0)
(0.000675077 3.04833e-05 0)
(0.000658591 3.13308e-05 0)
(0.000641722 3.18716e-05 0)
(0.000624628 3.2123e-05 0)
(0.000607454 3.21068e-05 0)
(0.000590336 3.18475e-05 0)
(0.000573396 3.13726e-05 0)
(0.00055674 3.0711e-05 0)
(0.000540459 2.98935e-05 0)
(0.00052463 2.89515e-05 0)
(0.000509311 2.79177e-05 0)
(0.000494546 2.68248e-05 0)
(0.000480359 2.57072e-05 0)
(0.000466759 2.45993e-05 0)
(0.000453739 2.3538e-05 0)
(0.000441273 2.25612e-05 0)
(0.000429319 2.17105e-05 0)
(0.000417819 2.10308e-05 0)
(0.000406699 2.05727e-05 0)
(0.000395871 2.03914e-05 0)
(0.000385235 2.05477e-05 0)
(0.000374701 2.10989e-05 0)
(0.000364265 2.2087e-05 0)
(0.000353834 2.3512e-05 0)
(0.000342448 2.52126e-05 0)
(0.000331134 2.65122e-05 0)
(0.00101822 0.000154486 0)
(0.00105468 0.000312502 0)
(0.0010765 0.000362229 0)
(0.00107063 0.000352256 0)
(0.001043 0.000315339 0)
(0.00100359 0.000269897 0)
(0.000959994 0.000225011 0)
(0.00091712 0.000184423 0)
(0.000877781 0.000149189 0)
(0.000843373 0.000119157 0)
(0.000814411 9.37253e-05 0)
(0.000790909 7.2191e-05 0)
(0.000772619 5.38958e-05 0)
(0.000759171 3.82765e-05 0)
(0.000750147 2.48738e-05 0)
(0.000745127 1.33214e-05 0)
(0.000743703 3.33378e-06 0)
(0.000745487 -5.30974e-06 0)
(0.000750116 -1.27762e-05 0)
(0.000757244 -1.91908e-05 0)
(0.000766543 -2.46445e-05 0)
(0.000777694 -2.92027e-05 0)
(0.000790388 -3.29095e-05 0)
(0.000804319 -3.57952e-05 0)
(0.000819185 -3.78786e-05 0)
(0.000834684 -3.91732e-05 0)
(0.000850513 -3.96889e-05 0)
(0.000866374 -3.94377e-05 0)
(0.000881967 -3.84342e-05 0)
(0.000897001 -3.67009e-05 0)
(0.000911192 -3.42674e-05 0)
(0.000924271 -3.11754e-05 0)
(0.000935985 -2.74762e-05 0)
(0.000946103 -2.32343e-05 0)
(0.000954423 -1.85237e-05 0)
(0.000960773 -1.34294e-05 0)
(0.000965018 -8.04328e-06 0)
(0.000967059 -2.46356e-06 0)
(0.00096684 3.21008e-06 0)
(0.000964342 8.87735e-06 0)
(0.000959586 1.44424e-05 0)
(0.000952632 1.98147e-05 0)
(0.000943573 2.49132e-05 0)
(0.000932533 2.96663e-05 0)
(0.000919662 3.4015e-05 0)
(0.00090513 3.79121e-05 0)
(0.000889125 4.13236e-05 0)
(0.000871844 4.42278e-05 0)
(0.000853491 4.6615e-05 0)
(0.000834273 4.84863e-05 0)
(0.000814391 4.98532e-05 0)
(0.000794044 5.07352e-05 0)
(0.000773419 5.11601e-05 0)
(0.000752692 5.11613e-05 0)
(0.000732024 5.07776e-05 0)
(0.000711561 5.00514e-05 0)
(0.000691433 4.90288e-05 0)
(0.000671748 4.77569e-05 0)
(0.000652599 4.62857e-05 0)
(0.000634059 4.46651e-05 0)
(0.00061618 4.2947e-05 0)
(0.000598997 4.11828e-05 0)
(0.000582525 3.94262e-05 0)
(0.00056676 3.77307e-05 0)
(0.000551682 3.61528e-05 0)
(0.000537252 3.47499e-05 0)
(0.000523415 3.35831e-05 0)
(0.000510106 3.27146e-05 0)
(0.000497248 3.22085e-05 0)
(0.000484757 3.21234e-05 0)
(0.000472568 3.2504e-05 0)
(0.00046071 3.33582e-05 0)
(0.000449103 3.46298e-05 0)
(0.000436668 3.60989e-05 0)
(0.000424396 3.71608e-05 0)
(0.00101219 0.00012516 0)
(0.00104306 0.000277177 0)
(0.00107338 0.000345269 0)
(0.00108642 0.000357079 0)
(0.00108095 0.000336895 0)
(0.00106227 0.000301379 0)
(0.00103599 0.000260597 0)
(0.00100663 0.000220009 0)
(0.000977422 0.000182219 0)
(0.000950423 0.000148225 0)
(0.000926835 0.000118182 0)
(0.00090726 9.18577e-05 0)
(0.000891915 6.8866e-05 0)
(0.000880777 4.87926e-05 0)
(0.000873685 3.12505e-05 0)
(0.000870399 1.59045e-05 0)
(0.000870636 2.47555e-06 0)
(0.000874095 -9.26034e-06 0)
(0.000880465 -1.9479e-05 0)
(0.000889433 -2.83135e-05 0)
(0.000900684 -3.58625e-05 0)
(0.000913904 -4.21954e-05 0)
(0.000928775 -4.73598e-05 0)
(0.000944975 -5.13853e-05 0)
(0.000962181 -5.42911e-05 0)
(0.000980065 -5.60884e-05 0)
(0.000998293 -5.67878e-05 0)
(0.00101653 -5.64008e-05 0)
(0.00103445 -5.49468e-05 0)
(0.00105171 -5.24538e-05 0)
(0.001068 -4.89643e-05 0)
(0.00108301 -4.45342e-05 0)
(0.00109645 -3.92377e-05 0)
(0.00110805 -3.31644e-05 0)
(0.00111758 -2.64213e-05 0)
(0.00112485 -1.91281e-05 0)
(0.0011297 -1.14177e-05 0)
(0.00113201 -3.42914e-06 0)
(0.00113172 4.69346e-06 0)
(0.00112882 1.28079e-05 0)
(0.00112332 2.07759e-05 0)
(0.0011153 2.8469e-05 0)
(0.00110486 3.57704e-05 0)
(0.00109214 4.2579e-05 0)
(0.00107734 4.88097e-05 0)
(0.00106062 5.43961e-05 0)
(0.00104223 5.92893e-05 0)
(0.00102237 6.34588e-05 0)
(0.00100129 6.68904e-05 0)
(0.000979216 6.95864e-05 0)
(0.000956388 7.15622e-05 0)
(0.000933027 7.28465e-05 0)
(0.000909348 7.34777e-05 0)
(0.000885553 7.35041e-05 0)
(0.000861824 7.29798e-05 0)
(0.00083833 7.19657e-05 0)
(0.000815215 7.05259e-05 0)
(0.000792608 6.87283e-05 0)
(0.000770614 6.66418e-05 0)
(0.000749317 6.43378e-05 0)
(0.00072878 6.18872e-05 0)
(0.000709047 5.93626e-05 0)
(0.000690138 5.68359e-05 0)
(0.000672057 5.43806e-05 0)
(0.000654789 5.20693e-05 0)
(0.000638302 4.99766e-05 0)
(0.000622549 4.81758e-05 0)
(0.000607473 4.67397e-05 0)
(0.000593012 4.57349e-05 0)
(0.000579095 4.52175e-05 0)
(0.00056567 4.52168e-05 0)
(0.00055278 4.57186e-05 0)
(0.000540333 4.66354e-05 0)
(0.000527137 4.77428e-05 0)
(0.000514153 4.85394e-05 0)
(0.00100834 0.000103653 0)
(0.0010338 0.000243631 0)
(0.0010659 0.000319335 0)
(0.00108901 0.000345855 0)
(0.00109852 0.000339946 0)
(0.00109619 0.000315107 0)
(0.00108536 0.000280806 0)
(0.00106946 0.000243072 0)
(0.0010514 0.000205429 0)
(0.00103338 0.000169745 0)
(0.0010169 0.000136876 0)
(0.00100294 0.000107095 0)
(0.000992068 8.03618e-05 0)
(0.000984554 5.64904e-05 0)
(0.00098048 3.52386e-05 0)
(0.000979796 1.63598e-05 0)
(0.000982363 -3.70529e-07 0)
(0.000987988 -1.51449e-05 0)
(0.000996438 -2.81189e-05 0)
(0.00100745 -3.94137e-05 0)
(0.00102076 -4.9118e-05 0)
(0.00103605 -5.72941e-05 0)
(0.00105304 -6.3981e-05 0)
(0.00107139 -6.9202e-05 0)
(0.00109077 -7.29677e-05 0)
(0.00111085 -7.52841e-05 0)
(0.00113126 -7.61555e-05 0)
(0.00115165 -7.55924e-05 0)
(0.00117167 -7.36135e-05 0)
(0.00119094 -7.02537e-05 0)
(0.00120912 -6.55642e-05 0)
(0.00122587 -5.96194e-05 0)
(0.00124086 -5.25143e-05 0)
(0.0012538 -4.43695e-05 0)
(0.00126443 -3.53256e-05 0)
(0.00127252 -2.5545e-05 0)
(0.00127791 -1.52037e-05 0)
(0.00128047 -4.4906e-06 0)
(0.00128012 6.40235e-06 0)
(0.00127685 1.72824e-05 0)
(0.00127069 2.79651e-05 0)
(0.00126171 3.8277e-05 0)
(0.00125005 4.80627e-05 0)
(0.00123585 5.71862e-05 0)
(0.00121933 6.55348e-05 0)
(0.0012007 7.30195e-05 0)
(0.00118021 7.95764e-05 0)
(0.00115811 8.51644e-05 0)
(0.00113465 8.97661e-05 0)
(0.00111011 9.33839e-05 0)
(0.00108473 9.60398e-05 0)
(0.00105878 9.77715e-05 0)
(0.00103248 9.86311e-05 0)
(0.00100606 9.86819e-05 0)
(0.000979726 9.79973e-05 0)
(0.000953655 9.66567e-05 0)
(0.000928013 9.47462e-05 0)
(0.00090294 9.23543e-05 0)
(0.000878552 8.95733e-05 0)
(0.000854944 8.64951e-05 0)
(0.000832189 8.32137e-05 0)
(0.000810336 7.98215e-05 0)
(0.000789415 7.64118e-05 0)
(0.000769435 7.30756e-05 0)
(0.000750388 6.99045e-05 0)
(0.000732248 6.69863e-05 0)
(0.000714978 6.44079e-05 0)
(0.00069853 6.22486e-05 0)
(0.000682849 6.05795e-05 0)
(0.000667875 5.94522e-05 0)
(0.00065356 5.88896e-05 0)
(0.000639946 5.88652e-05 0)
(0.000626916 5.92866e-05 0)
(0.000613189 5.99502e-05 0)
(0.000599701 6.04661e-05 0)
(0.00100599 8.72602e-05 0)
(0.00102716 0.000213388 0)
(0.00105825 0.000290051 0)
(0.00108612 0.000325233 0)
(0.00110509 0.000330042 0)
(0.0011147 0.000314756 0)
(0.00111642 0.000287494 0)
(0.00111246 0.000254077 0)
(0.00110509 0.000218368 0)
(0.00109628 0.00018276 0)
(0.00108755 0.000148631 0)
(0.00108004 0.000116693 0)
(0.00107451 8.72525e-05 0)
(0.00107144 6.03759e-05 0)
(0.00107112 3.60031e-05 0)
(0.00107365 1.40159e-05 0)
(0.00107904 -5.72192e-06 0)
(0.0010872 -2.33395e-05 0)
(0.001098 -3.89487e-05 0)
(0.00111123 -5.26368e-05 0)
(0.00112666 -6.44673e-05 0)
(0.00114405 -7.44799e-05 0)
(0.00116309 -8.26961e-05 0)
(0.00118349 -8.9121e-05 0)
(0.00120492 -9.37516e-05 0)
(0.00122703 -9.65792e-05 0)
(0.00124946 -9.75992e-05 0)
(0.00127183 -9.6813e-05 0)
(0.00129377 -9.42385e-05 0)
(0.00131488 -8.99111e-05 0)
(0.00133479 -8.38928e-05 0)
(0.00135313 -7.62717e-05 0)
(0.00136954 -6.71688e-05 0)
(0.00138371 -5.67335e-05 0)
(0.00139534 -4.51473e-05 0)
(0.0014042 -3.26155e-05 0)
(0.00141009 -1.93666e-05 0)
(0.00141288 -5.64133e-06 0)
(0.00141248 8.31085e-06 0)
(0.00140888 2.22437e-05 0)
(0.00140212 3.59183e-05 0)
(0.00139229 4.91136e-05 0)
(0.00137953 6.16294e-05 0)
(0.00136403 7.32929e-05 0)
(0.00134599 8.39604e-05 0)
(0.00132568 9.352e-05 0)
(0.00130335 0.00010189 0)
(0.00127929 0.000109021 0)
(0.00125378 0.000114891 0)
(0.00122711 0.000119505 0)
(0.00119955 0.000122892 0)
(0.00117139 0.000125099 0)
(0.00114288 0.000126195 0)
(0.00111425 0.00012626 0)
(0.00108573 0.000125388 0)
(0.00105751 0.000123679 0)
(0.00102978 0.000121242 0)
(0.00100267 0.00011819 0)
(0.00097632 0.000114637 0)
(0.000950831 0.000110701 0)
(0.000926282 0.000106495 0)
(0.000902728 0.000102136 0)
(0.000880206 9.77363e-05 0)
(0.000858731 9.34073e-05 0)
(0.000838299 8.92558e-05 0)
(0.000818894 8.53859e-05 0)
(0.000800482 8.18941e-05 0)
(0.000783023 7.88695e-05 0)
(0.00076647 7.63857e-05 0)
(0.000750762 7.44967e-05 0)
(0.000735851 7.32229e-05 0)
(0.000721771 7.25411e-05 0)
(0.000708378 7.23664e-05 0)
(0.000694324 7.25343e-05 0)
(0.000680527 7.27591e-05 0)
(0.00100456 7.42232e-05 0)
(0.00102249 0.000186463 0)
(0.00105162 0.000260194 0)
(0.00108129 0.000299492 0)
(0.0011059 0.000311557 0)
(0.00112377 0.000303922 0)
(0.00113509 0.000283169 0)
(0.00114101 0.00025449 0)
(0.00114309 0.000221674 0)
(0.00114287 0.000187325 0)
(0.00114175 0.000153138 0)
(0.00114083 0.000120152 0)
(0.00114094 8.89645e-05 0)
(0.0011427 5.98804e-05 0)
(0.0011465 3.30285e-05 0)
(0.0011526 8.43446e-06 0)
(0.0011611 -1.39275e-05 0)
(0.00117203 -3.41044e-05 0)
(0.00118532 -5.21429e-05 0)
(0.00120086 -6.80812e-05 0)
(0.00121846 -8.19407e-05 0)
(0.00123791 -9.37279e-05 0)
(0.00125895 -0.000103433 0)
(0.00128131 -0.000111036 0)
(0.00130467 -0.000116509 0)
(0.00132867 -0.000119825 0)
(0.00135297 -0.000120959 0)
(0.00137716 -0.000119903 0)
(0.00140087 -0.000116664 0)
(0.00142368 -0.000111279 0)
(0.00144519 -0.000103813 0)
(0.001465 -9.43713e-05 0)
(0.00148274 -8.30962e-05 0)
(0.00149805 -7.01722e-05 0)
(0.00151062 -5.58197e-05 0)
(0.00152019 -4.02958e-05 0)
(0.00152656 -2.38823e-05 0)
(0.00152956 -6.88237e-06 0)
(0.00152913 1.0395e-05 0)
(0.00152524 2.76401e-05 0)
(0.00151795 4.45573e-05 0)
(0.00150735 6.08701e-05 0)
(0.00149361 7.63319e-05 0)
(0.00147693 9.07287e-05 0)
(0.00145756 0.000103885 0)
(0.00143577 0.000115664 0)
(0.00141184 0.000125969 0)
(0.00138609 0.000134738 0)
(0.00135882 0.000141949 0)
(0.00133034 0.000147609 0)
(0.00130095 0.000151755 0)
(0.00127094 0.000154449 0)
(0.00124059 0.000155775 0)
(0.00121014 0.000155832 0)
(0.00117984 0.000154736 0)
(0.00114989 0.000152611 0)
(0.00112047 0.000149591 0)
(0.00109175 0.00014581 0)
(0.00106386 0.000141412 0)
(0.0010369 0.000136534 0)
(0.00101097 0.000131317 0)
(0.00098612 0.000125897 0)
(0.000962394 0.000120409 0)
(0.000939812 0.000114983 0)
(0.000918375 0.000109742 0)
(0.00089807 0.000104804 0)
(0.000878869 0.000100279 0)
(0.000860736 9.62624e-05 0)
(0.000843625 9.2837e-05 0)
(0.000827474 9.00597e-05 0)
(0.00081223 8.7959e-05 0)
(0.000797913 8.65204e-05 0)
(0.000784356 8.5681e-05 0)
(0.000770171 8.53171e-05 0)
(0.000756255 8.52453e-05 0)
(0.00100364 6.34299e-05 0)
(0.00101916 0.000162409 0)
(0.00104615 0.000231039 0)
(0.00107605 0.000271259 0)
(0.00110375 0.000287663 0)
(0.00112709 0.000285639 0)
(0.00114542 0.000270336 0)
(0.00115911 0.000246151 0)
(0.00116905 0.000216554 0)
(0.00117638 0.000184128 0)
(0.00118221 0.000150702 0)
(0.00118752 0.000117519 0)
(0.00119315 8.53889e-05 0)
(0.00119973 5.48173e-05 0)
(0.00120772 2.61035e-05 0)
(0.00121747 -5.83417e-07 0)
(0.00122918 -2.51542e-05 0)
(0.00124294 -4.7561e-05 0)
(0.00125876 -6.77756e-05 0)
(0.0012766 -8.57721e-05 0)
(0.00129633 -0.000101521 0)
(0.00131778 -0.000114981 0)
(0.00134073 -0.000126105 0)
(0.00136493 -0.000134835 0)
(0.00139008 -0.000141113 0)
(0.00141584 -0.000144881 0)
(0.00144185 -0.000146094 0)
(0.00146774 -0.000144721 0)
(0.00149308 -0.000140757 0)
(0.00151746 -0.000134232 0)
(0.00154046 -0.000125215 0)
(0.00156164 -0.000113821 0)
(0.00158062 -0.000100217 0)
(0.00159701 -8.46197e-05 0)
(0.00161047 -6.72956e-05 0)
(0.00162072 -4.85528e-05 0)
(0.00162754 -2.87375e-05 0)
(0.00163076 -8.21627e-06 0)
(0.0016303 1.26304e-05 0)
(0.00162616 3.34272e-05 0)
(0.00161838 5.38122e-05 0)
(0.0016071 7.34517e-05 0)
(0.00159248 9.20467e-05 0)
(0.00157477 0.000109342 0)
(0.00155422 0.000125127 0)
(0.00153114 0.000139241 0)
(0.00150584 0.00015157 0)
(0.00147865 0.000162047 0)
(0.00144989 0.000170644 0)
(0.00141991 0.000177377 0)
(0.00138901 0.00018229 0)
(0.0013575 0.000185463 0)
(0.00132566 0.000186996 0)
(0.00129378 0.00018701 0)
(0.00126208 0.000185645 0)
(0.00123079 0.000183049 0)
(0.00120009 0.000179382 0)
(0.00117016 0.000174806 0)
(0.00114113 0.000169486 0)
(0.00111311 0.000163589 0)
(0.00108619 0.000157277 0)
(0.00106044 0.000150711 0)
(0.0010359 0.000144044 0)
(0.00101258 0.000137426 0)
(0.000990504 0.000130998 0)
(0.000969649 0.000124892 0)
(0.000949992 0.000119228 0)
(0.000931498 0.000114116 0)
(0.00091412 0.000109643 0)
(0.000897794 0.00010588 0)
(0.000882457 0.000102863 0)
(0.000868115 0.000100597 0)
(0.000854584 9.90445e-05 0)
(0.000840459 9.81272e-05 0)
(0.000826612 9.77533e-05 0)
(0.00100304 5.41993e-05 0)
(0.00101672 0.000140742 0)
(0.00104167 0.000203123 0)
(0.00107096 0.000242103 0)
(0.00110013 0.000260563 0)
(0.00112687 0.000262289 0)
(0.0011501 0.000251206 0)
(0.00116962 0.000230911 0)
(0.00118582 0.000204439 0)
(0.00119942 0.000174198 0)
(0.00121126 0.000142015 0)
(0.00122216 0.000109225 0)
(0.00123285 7.67735e-05 0)
(0.00124394 4.53124e-05 0)
(0.00125594 1.52835e-05 0)
(0.00126921 -1.30175e-05 0)
(0.00128401 -3.93891e-05 0)
(0.00130051 -6.36893e-05 0)
(0.00131878 -8.58075e-05 0)
(0.00133883 -0.000105649 0)
(0.00136057 -0.000123122 0)
(0.00138389 -0.000138134 0)
(0.00140861 -0.000150587 0)
(0.00143449 -0.000160382 0)
(0.00146127 -0.000167418 0)
(0.00148863 -0.000171604 0)
(0.00151621 -0.00017286 0)
(0.00154363 -0.000171131 0)
(0.00157047 -0.000166391 0)
(0.00159631 -0.000158659 0)
(0.00162068 -0.000148 0)
(0.00164316 -0.00013454 0)
(0.0016633 -0.000118464 0)
(0.00168071 -0.000100025 0)
(0.00169502 -7.95352e-05 0)
(0.00170592 -5.73634e-05 0)
(0.00171317 -3.392e-05 0)
(0.0017166 -9.64873e-06 0)
(0.00171614 1.49969e-05 0)
(0.00171176 3.95639e-05 0)
(0.00170355 6.36217e-05 0)
(0.00169165 8.67716e-05 0)
(0.00167625 0.000108661 0)
(0.00165763 0.00012899 0)
(0.00163606 0.000147515 0)
(0.00161188 0.000164049 0)
(0.00158541 0.000178465 0)
(0.00155702 0.000190688 0)
(0.00152706 0.000200692 0)
(0.00149586 0.000208499 0)
(0.00146377 0.000214168 0)
(0.00143109 0.000217792 0)
(0.00139814 0.000219493 0)
(0.00136518 0.000219417 0)
(0.00133247 0.000217727 0)
(0.00130023 0.000214599 0)
(0.00126865 0.000210218 0)
(0.0012379 0.000204775 0)
(0.00120813 0.000198462 0)
(0.00117944 0.000191469 0)
(0.00115193 0.000183986 0)
(0.00112566 0.000176193 0)
(0.00110067 0.000168267 0)
(0.00107699 0.000160376 0)
(0.00105462 0.000152677 0)
(0.00103355 0.000145316 0)
(0.00101375 0.00013843 0)
(0.000995189 0.000132136 0)
(0.000977818 0.000126537 0)
(0.000961566 0.000121711 0)
(0.000946362 0.000117715 0)
(0.000932199 0.000114574 0)
(0.000918878 0.000112277 0)
(0.000905002 0.000110792 0)
(0.000891411 0.000110115 0)
(0.00100261 4.61118e-05 0)
(0.00101484 0.000121057 0)
(0.00103794 0.000176642 0)
(0.0010662 0.000212965 0)
(0.00109576 0.000231773 0)
(0.00112442 0.000235682 0)
(0.00115087 0.000227625 0)
(0.00117455 0.000210469 0)
(0.0011955 0.000186778 0)
(0.00121408 0.000158706 0)
(0.00123087 0.000127984 0)
(0.0012465 9.59514e-05 0)
(0.00126159 6.36179e-05 0)
(0.0012767 3.17318e-05 0)
(0.0012923 8.39625e-07 0)
(0.00130877 -2.86566e-05 0)
(0.00132642 -5.64579e-05 0)
(0.00134543 -8.23314e-05 0)
(0.00136594 -0.000106087 0)
(0.00138798 -0.000127557 0)
(0.00141154 -0.000146586 0)
(0.00143653 -0.00016302 0)
(0.00146281 -0.000176709 0)
(0.00149018 -0.000187501 0)
(0.0015184 -0.000195251 0)
(0.00154716 -0.000199822 0)
(0.00157613 -0.000201098 0)
(0.00160492 -0.000198985 0)
(0.00163311 -0.000193435 0)
(0.00166026 -0.000184444 0)
(0.00168591 -0.000172072 0)
(0.00170958 -0.000156446 0)
(0.00173082 -0.000137774 0)
(0.00174919 -0.000116339 0)
(0.0017643 -9.25056e-05 0)
(0.00177582 -6.67034e-05 0)
(0.00178349 -3.94213e-05 0)
(0.00178713 -1.11811e-05 0)
(0.00178665 1.74754e-05 0)
(0.00178207 4.60152e-05 0)
(0.00177347 7.3928e-05 0)
(0.00176102 0.000100749 0)
(0.00174494 0.000126067 0)
(0.00172553 0.000149536 0)
(0.0017031 0.00017088 0)
(0.00167799 0.00018989 0)
(0.00165059 0.000206425 0)
(0.00162125 0.000220405 0)
(0.00159034 0.000231811 0)
(0.00155823 0.00024067 0)
(0.00152527 0.000247059 0)
(0.00149177 0.00025109 0)
(0.00145805 0.000252907 0)
(0.0014244 0.000252681 0)
(0.00139105 0.0002506 0)
(0.00135824 0.000246871 0)
(0.00132617 0.000241707 0)
(0.00129501 0.000235325 0)
(0.00126489 0.000227946 0)
(0.00123592 0.000219787 0)
(0.0012082 0.00021106 0)
(0.00118179 0.000201971 0)
(0.00115672 0.000192716 0)
(0.00113302 0.000183482 0)
(0.00111069 0.000174442 0)
(0.00108972 0.000165761 0)
(0.00107009 0.000157585 0)
(0.00105175 0.000150047 0)
(0.00103464 0.000143261 0)
(0.0010187 0.000137324 0)
(0.00100385 0.000132306 0)
(0.000990059 0.000128259 0)
(0.000977128 0.000125201 0)
(0.000963689 0.000123143 0)
(0.000950538 0.000122162 0)
(0.00100228 3.89032e-05 0)
(0.00101335 0.00010305 0)
(0.00103475 0.000151654 0)
(0.00106174 0.000184421 0)
(0.001091 0.000202344 0)
(0.00112049 0.000207185 0)
(0.00114885 0.000201094 0)
(0.00117531 0.000186306 0)
(0.00119965 0.000164933 0)
(0.00122197 0.000138843 0)
(0.00124262 0.000109611 0)
(0.00126205 7.85191e-05 0)
(0.00128077 4.65876e-05 0)
(0.00129924 1.46121e-05 0)
(0.0013179 -1.67893e-05 0)
(0.00133713 -4.71359e-05 0)
(0.00135722 -7.60457e-05 0)
(0.0013784 -0.000103208 0)
(0.00140082 -0.000128355 0)
(0.00142457 -0.000151252 0)
(0.00144966 -0.000171673 0)
(0.00147605 -0.000189407 0)
(0.00150363 -0.000204241 0)
(0.00153223 -0.000215972 0)
(0.00156163 -0.000224398 0)
(0.00159157 -0.000229335 0)
(0.0016217 -0.000230617 0)
(0.00165166 -0.000228115 0)
(0.00168102 -0.000221738 0)
(0.00170933 -0.00021146 0)
(0.00173612 -0.000197323 0)
(0.00176088 -0.000179456 0)
(0.00178313 -0.000158078 0)
(0.0018024 -0.000133511 0)
(0.00181826 -0.000106166 0)
(0.00183036 -7.65489e-05 0)
(0.00183842 -4.52251e-05 0)
(0.00184225 -1.28134e-05 0)
(0.00184177 2.00538e-05 0)
(0.001837 5.2748e-05 0)
(0.00182806 8.46775e-05 0)
(0.00181512 0.000115302 0)
(0.00179846 0.000144153 0)
(0.00177839 0.000170839 0)
(0.00175526 0.00019505 0)
(0.00172944 0.000216558 0)
(0.00170132 0.000235213 0)
(0.00167129 0.000250935 0)
(0.00163974 0.000263708 0)
(0.00160703 0.000273577 0)
(0.00157353 0.000280631 0)
(0.00153956 0.000285006 0)
(0.00150544 0.000286871 0)
(0.00147146 0.000286423 0)
(0.00143787 0.00028388 0)
(0.00140489 0.000279475 0)
(0.00137272 0.000273454 0)
(0.00134153 0.000266062 0)
(0.00131146 0.000257548 0)
(0.0012826 0.000248156 0)
(0.00125505 0.000238122 0)
(0.00122886 0.000227676 0)
(0.00120408 0.000217035 0)
(0.0011807 0.000206402 0)
(0.00115875 0.000195972 0)
(0.0011382 0.00018592 0)
(0.00111902 0.000176409 0)
(0.00110116 0.000167584 0)
(0.00108457 0.000159575 0)
(0.00106918 0.000152493 0)
(0.00105488 0.000146432 0)
(0.00104166 0.000141465 0)
(0.00102929 0.000137641 0)
(0.00101648 0.00013501 0)
(0.00100395 0.000133731 0)
(0.00100203 3.24043e-05 0)
(0.0010121 8.6505e-05 0)
(0.00103194 0.000128163 0)
(0.00105752 0.000156841 0)
(0.001086 0.000173018 0)
(0.00111553 0.000177831 0)
(0.00114476 0.000172818 0)
(0.00117286 0.000159687 0)
(0.0011994 0.000140137 0)
(0.00122433 0.000115748 0)
(0.00124778 8.79112e-05 0)
(0.00127008 5.78143e-05 0)
(0.00129158 2.64427e-05 0)
(0.00131268 -5.3959e-06 0)
(0.00133377 -3.70459e-05 0)
(0.00135519 -6.79703e-05 0)
(0.00137723 -9.77252e-05 0)
(0.00140012 -0.000125931 0)
(0.00142405 -0.000152257 0)
(0.00144912 -0.000176396 0)
(0.00147538 -0.000198066 0)
(0.00150282 -0.000216987 0)
(0.00153136 -0.00023289 0)
(0.00156087 -0.00024551 0)
(0.00159116 -0.000254591 0)
(0.00162197 -0.000259889 0)
(0.001653 -0.00026119 0)
(0.00168388 -0.000258309 0)
(0.00171419 -0.000251117 0)
(0.00174348 -0.000239548 0)
(0.00177124 -0.000223624 0)
(0.00179696 -0.000203461 0)
(0.00182011 -0.000179295 0)
(0.00184019 -0.000151474 0)
(0.00185674 -0.000120472 0)
(0.00186937 -8.68622e-05 0)
(0.00187779 -5.13111e-05 0)
(0.00188179 -1.4535e-05 0)
(0.0018813 2.27222e-05 0)
(0.00187636 5.97341e-05 0)
(0.00186711 9.58139e-05 0)
(0.00185377 0.000130346 0)
(0.00183663 0.000162801 0)
(0.00181605 0.000192742 0)
(0.00179241 0.000219834 0)
(0.00176609 0.000243829 0)
(0.00173752 0.000264574 0)
(0.00170709 0.000281991 0)
(0.0016752 0.000296075 0)
(0.00164223 0.000306885 0)
(0.00160855 0.000314533 0)
(0.00157448 0.000319175 0)
(0.00154035 0.000321008 0)
(0.00150643 0.000320257 0)
(0.00147299 0.000317171 0)
(0.00144024 0.000312015 0)
(0.00140838 0.000305063 0)
(0.00137757 0.000296592 0)
(0.00134794 0.000286878 0)
(0.00131958 0.000276193 0)
(0.00129258 0.000264799 0)
(0.00126699 0.000252947 0)
(0.00124283 0.000240875 0)
(0.00122013 0.000228806 0)
(0.00119887 0.000216949 0)
(0.00117904 0.000205496 0)
(0.00116059 0.000194623 0)
(0.00114349 0.00018449 0)
(0.00112766 0.000175242 0)
(0.00111302 0.000167006 0)
(0.00109949 0.000159895 0)
(0.00108702 0.00015401 0)
(0.00107539 0.000149424 0)
(0.00106338 0.00014623 0)
(0.00105165 0.000144655 0)
(0.00100182 2.65056e-05 0)
(0.00101102 7.12734e-05 0)
(0.00102939 0.000106164 0)
(0.00105347 0.00013048 0)
(0.00108081 0.000144337 0)
(0.00110977 0.000148413 0)
(0.00113908 0.000143768 0)
(0.00116786 0.000131676 0)
(0.0011956 0.000113477 0)
(0.0012221 9.04741e-05 0)
(0.00124738 6.38704e-05 0)
(0.00127161 3.47334e-05 0)
(0.00129505 3.98845e-06 0)
(0.00131802 -2.75762e-05 0)