# Field minima and maxima
# Time        	field         	min           	location(min) 	processor     	max           	location(max) 	processor     
1.199904e-06  	T             	7.727989e+02	(4.450000e-05 4.450000e-05 5.000000e-07)	5	7.730026e+02	(4.455000e-04 4.550000e-05 5.000000e-07)	0
2.639616e-06  	T             	7.727989e+02	(4.450000e-05 4.450000e-05 5.000000e-07)	5	7.730026e+02	(4.455000e-04 4.550000e-05 5.000000e-07)	0
4.367171e-06  	T             	7.727988e+02	(4.450000e-05 4.450000e-05 5.000000e-07)	5	7.730026e+02	(4.455000e-04 4.550000e-05 5.000000e-07)	0
6.440094e-06  	T             	7.727987e+02	(4.450000e-05 4.450000e-05 5.000000e-07)	5	7.730026e+02	(4.455000e-04 4.550000e-05 5.000000e-07)	0
8.927291e-06  	T             	7.727985e+02	(4.450000e-05 4.450000e-05 5.000000e-07)	5	7.730026e+02	(4.455000e-04 4.550000e-05 5.000000e-07)	0
1.191148e-05  	T             	7.727984e+02	(4.450000e-05 4.450000e-05 5.000000e-07)	5	7.730026e+02	(4.455000e-04 4.550000e-05 5.000000e-07)	0
1.549144e-05  	T             	7.727988e+02	(4.450000e-05 4.450000e-05 5.000000e-07)	5	7.730027e+02	(4.455000e-04 4.550000e-05 5.000000e-07)	0
1.978585e-05  	T             	7.727998e+02	(6.550000e-05 6.250000e-05 5.000000e-07)	4	7.730027e+02	(4.455000e-04 4.550000e-05 5.000000e-07)	0
2.493826e-05  	T             	7.727993e+02	(6.550000e-05 6.250000e-05 5.000000e-07)	4	7.730027e+02	(4.455000e-04 4.550000e-05 5.000000e-07)	0
3.11186e-05   	T             	7.727988e+02	(6.850000e-05 2.250000e-05 5.000000e-07)	4	7.730027e+02	(4.455000e-04 4.550000e-05 5.000000e-07)	0
3.853041e-05  	T             	7.727991e+02	(6.850000e-05 2.250000e-05 5.000000e-07)	4	7.730048e+02	(2.750000e-05 8.650000e-05 5.000000e-07)	5
4.742458e-05  	T             	7.727998e+02	(8.050000e-05 5.000000e-07 5.000000e-07)	4	7.730906e+02	(2.750000e-05 8.650000e-05 5.000000e-07)	5
5.809186e-05  	T             	7.727991e+02	(8.050000e-05 5.000000e-07 5.000000e-07)	4	7.732040e+02	(2.750000e-05 8.650000e-05 5.000000e-07)	5
7.088711e-05  	T             	7.728001e+02	(8.050000e-05 5.000000e-07 5.000000e-07)	4	7.733529e+02	(2.750000e-05 8.650000e-05 5.000000e-07)	5
8.62335e-05   	T             	7.728048e+02	(8.050000e-05 5.000000e-07 5.000000e-07)	4	7.735471e+02	(2.750000e-05 8.650000e-05 5.000000e-07)	5
0.0001046264  	T             	7.728160e+02	(8.050000e-05 5.000000e-07 5.000000e-07)	4	7.737977e+02	(2.750000e-05 8.650000e-05 5.000000e-07)	5
0.0001266651  	T             	7.728206e+02	(1.085000e-04 9.250000e-05 5.000000e-07)	4	7.741171e+02	(2.750000e-05 8.650000e-05 5.000000e-07)	5
0.0001530644  	T             	7.728234e+02	(1.335000e-04 7.500000e-06 5.000000e-07)	7	7.745191e+02	(2.750000e-05 8.650000e-05 5.000000e-07)	5
0.0001847265  	T             	7.728249e+02	(1.335000e-04 7.500000e-06 5.000000e-07)	7	7.750191e+02	(2.750000e-05 8.650000e-05 5.000000e-07)	5
0.0002226233  	T             	7.728294e+02	(1.515000e-04 5.150000e-05 5.000000e-07)	7	7.756390e+02	(3.150000e-05 7.450000e-05 5.000000e-07)	5
0.0002680995  	T             	7.728411e+02	(1.325000e-04 9.950000e-05 5.000000e-07)	7	7.764006e+02	(3.150000e-05 7.450000e-05 5.000000e-07)	5
0.0003224677  	T             	7.728449e+02	(1.995000e-04 3.150000e-05 5.000000e-07)	6	7.773117e+02	(3.150000e-05 7.450000e-05 5.000000e-07)	5
0.0003865573  	T             	7.728483e+02	(2.335000e-04 1.450000e-05 5.000000e-07)	6	7.783794e+02	(3.150000e-05 7.450000e-05 5.000000e-07)	5
0.0004605069  	T             	7.728511e+02	(2.335000e-04 1.450000e-05 5.000000e-07)	6	7.795995e+02	(3.150000e-05 7.450000e-05 5.000000e-07)	5
0.000543459   	T             	7.728561e+02	(2.325000e-04 7.650000e-05 5.000000e-07)	6	7.809528e+02	(3.150000e-05 7.450000e-05 5.000000e-07)	5
0.00063527    	T             	7.728633e+02	(2.325000e-04 7.650000e-05 5.000000e-07)	6	7.824346e+02	(3.150000e-05 7.450000e-05 5.000000e-07)	5
0.0007289173  	T             	7.728741e+02	(2.325000e-04 7.650000e-05 5.000000e-07)	6	7.839340e+02	(3.150000e-05 7.450000e-05 5.000000e-07)	5
0.0008216282  	T             	7.728835e+02	(2.505000e-04 9.550000e-05 5.000000e-07)	2	7.854112e+02	(3.150000e-05 7.450000e-05 5.000000e-07)	5
0.0009134119  	T             	7.728922e+02	(2.855000e-04 2.750000e-05 5.000000e-07)	2	7.868711e+02	(3.150000e-05 7.450000e-05 5.000000e-07)	5
0.001005196   	T             	7.729010e+02	(3.345000e-04 4.550000e-05 5.000000e-07)	3	7.883326e+02	(3.150000e-05 7.450000e-05 5.000000e-07)	5
0.001096052   	T             	7.729043e+02	(3.345000e-04 4.550000e-05 5.000000e-07)	3	7.897849e+02	(3.150000e-05 7.450000e-05 5.000000e-07)	5
0.001186909   	T             	7.729065e+02	(3.355000e-04 8.750000e-05 5.000000e-07)	3	7.912461e+02	(3.150000e-05 7.450000e-05 5.000000e-07)	5
0.001276838   	T             	7.729087e+02	(3.355000e-04 8.750000e-05 5.000000e-07)	3	7.927045e+02	(3.150000e-05 7.450000e-05 5.000000e-07)	5
0.001366768   	T             	7.729113e+02	(3.355000e-04 8.750000e-05 5.000000e-07)	3	7.941779e+02	(3.150000e-05 7.450000e-05 5.000000e-07)	5
0.001456697   	T             	7.729142e+02	(3.355000e-04 8.750000e-05 5.000000e-07)	3	7.956692e+02	(3.150000e-05 7.450000e-05 5.000000e-07)	5
0.00154569    	T             	7.729172e+02	(3.355000e-04 8.750000e-05 5.000000e-07)	3	7.971652e+02	(3.150000e-05 7.450000e-05 5.000000e-07)	5
0.001634683   	T             	7.729205e+02	(3.355000e-04 8.750000e-05 5.000000e-07)	3	7.986839e+02	(3.150000e-05 7.450000e-05 5.000000e-07)	5
0.001723676   	T             	7.729239e+02	(3.385000e-04 9.950000e-05 5.000000e-07)	3	8.002278e+02	(3.150000e-05 7.450000e-05 5.000000e-07)	5
0.001811722   	T             	7.729274e+02	(3.385000e-04 9.950000e-05 5.000000e-07)	3	8.017824e+02	(3.150000e-05 7.450000e-05 5.000000e-07)	5
0.001899768   	T             	7.729310e+02	(3.385000e-04 9.950000e-05 5.000000e-07)	3	8.033665e+02	(3.150000e-05 7.450000e-05 5.000000e-07)	5
0.001987814   	T             	7.729347e+02	(3.385000e-04 9.950000e-05 5.000000e-07)	3	8.049825e+02	(3.150000e-05 7.450000e-05 5.000000e-07)	5
0.00207586    	T             	7.729385e+02	(3.385000e-04 9.950000e-05 5.000000e-07)	3	8.066329e+02	(3.150000e-05 7.450000e-05 5.000000e-07)	5
0.002162938   	T             	7.729422e+02	(3.385000e-04 9.950000e-05 5.000000e-07)	3	8.083013e+02	(3.150000e-05 7.450000e-05 5.000000e-07)	5
0.002250016   	T             	7.729461e+02	(3.385000e-04 9.950000e-05 5.000000e-07)	3	8.100084e+02	(3.150000e-05 7.450000e-05 5.000000e-07)	5
0.002337095   	T             	7.729499e+02	(3.385000e-04 9.950000e-05 5.000000e-07)	3	8.117570e+02	(3.150000e-05 7.450000e-05 5.000000e-07)	5
0.002423195   	T             	7.729537e+02	(3.385000e-04 9.950000e-05 5.000000e-07)	3	8.135291e+02	(3.150000e-05 7.450000e-05 5.000000e-07)	5
0.002509295   	T             	7.729576e+02	(3.385000e-04 9.950000e-05 5.000000e-07)	3	8.153475e+02	(3.150000e-05 7.450000e-05 5.000000e-07)	5
0.002595395   	T             	7.729614e+02	(3.385000e-04 9.950000e-05 5.000000e-07)	3	8.172151e+02	(3.150000e-05 7.450000e-05 5.000000e-07)	5
0.002680506   	T             	7.729646e+02	(3.755000e-04 7.150000e-05 5.000000e-07)	1	8.191127e+02	(3.150000e-05 7.450000e-05 5.000000e-07)	5
0.002765616   	T             	7.729671e+02	(3.755000e-04 7.150000e-05 5.000000e-07)	1	8.210650e+02	(3.150000e-05 7.450000e-05 5.000000e-07)	5
0.002850726   	T             	7.729696e+02	(3.755000e-04 7.150000e-05 5.000000e-07)	1	8.230760e+02	(3.150000e-05 7.450000e-05 5.000000e-07)	5
0.002934835   	T             	7.729719e+02	(3.755000e-04 7.150000e-05 5.000000e-07)	1	8.251243e+02	(3.150000e-05 7.450000e-05 5.000000e-07)	5
0.003018945   	T             	7.729743e+02	(3.755000e-04 7.150000e-05 5.000000e-07)	1	8.272381e+02	(3.150000e-05 7.450000e-05 5.000000e-07)	5
0.003103054   	T             	7.729766e+02	(3.755000e-04 7.150000e-05 5.000000e-07)	1	8.294218e+02	(3.150000e-05 7.450000e-05 5.000000e-07)	5
0.003186149   	T             	7.729789e+02	(3.755000e-04 7.150000e-05 5.000000e-07)	1	8.316523e+02	(3.150000e-05 7.450000e-05 5.000000e-07)	5
0.003269245   	T             	7.729811e+02	(3.755000e-04 7.150000e-05 5.000000e-07)	1	8.339613e+02	(3.150000e-05 7.450000e-05 5.000000e-07)	5
0.003352341   	T             	7.729833e+02	(3.755000e-04 7.150000e-05 5.000000e-07)	1	8.363547e+02	(3.150000e-05 7.450000e-05 5.000000e-07)	5
0.003434411   	T             	7.729854e+02	(3.755000e-04 7.150000e-05 5.000000e-07)	1	8.388070e+02	(3.150000e-05 7.450000e-05 5.000000e-07)	5
0.003516481   	T             	7.729873e+02	(3.865000e-04 4.750000e-05 5.000000e-07)	1	8.413547e+02	(3.150000e-05 7.450000e-05 5.000000e-07)	5
0.00359855    	T             	7.729888e+02	(3.865000e-04 4.750000e-05 5.000000e-07)	1	8.440054e+02	(3.150000e-05 7.450000e-05 5.000000e-07)	5
0.003679581   	T             	7.729902e+02	(3.865000e-04 4.750000e-05 5.000000e-07)	1	8.467310e+02	(3.150000e-05 7.450000e-05 5.000000e-07)	5
0.003760612   	T             	7.729915e+02	(3.865000e-04 4.750000e-05 5.000000e-07)	1	8.495741e+02	(3.150000e-05 7.450000e-05 5.000000e-07)	5
0.003840605   	T             	7.729928e+02	(3.865000e-04 4.750000e-05 5.000000e-07)	1	8.525050e+02	(3.150000e-05 7.450000e-05 5.000000e-07)	5
0.003920597   	T             	7.729941e+02	(3.865000e-04 4.750000e-05 5.000000e-07)	1	8.555709e+02	(3.150000e-05 7.450000e-05 5.000000e-07)	5
0.004000589   	T             	7.729953e+02	(3.865000e-04 4.750000e-05 5.000000e-07)	1	8.587837e+02	(3.150000e-05 7.450000e-05 5.000000e-07)	5
0.004079529   	T             	7.729965e+02	(3.865000e-04 4.750000e-05 5.000000e-07)	1	8.621104e+02	(3.150000e-05 7.450000e-05 5.000000e-07)	5
0.004158468   	T             	7.729976e+02	(3.865000e-04 4.750000e-05 5.000000e-07)	1	8.656076e+02	(3.150000e-05 7.450000e-05 5.000000e-07)	5
0.004236355   	T             	7.729987e+02	(3.865000e-04 4.750000e-05 5.000000e-07)	1	8.692399e+02	(3.150000e-05 7.450000e-05 5.000000e-07)	5
0.004314242   	T             	7.729998e+02	(3.865000e-04 4.750000e-05 5.000000e-07)	1	8.730712e+02	(3.150000e-05 7.450000e-05 5.000000e-07)	5
0.004391077   	T             	7.730000e+02	(0.000000e+00 5.000000e-07 5.000000e-07)	5	8.770631e+02	(3.150000e-05 7.450000e-05 5.000000e-07)	5
0.004467911   	T             	7.730000e+02	(0.000000e+00 5.000000e-07 5.000000e-07)	5	8.812880e+02	(3.150000e-05 7.450000e-05 5.000000e-07)	5
0.004543693   	T             	7.730000e+02	(0.000000e+00 5.000000e-07 5.000000e-07)	5	8.857195e+02	(2.850000e-05 7.450000e-05 5.000000e-07)	5
0.004619476   	T             	7.730000e+02	(0.000000e+00 5.000000e-07 5.000000e-07)	5	8.904499e+02	(2.450000e-05 7.450000e-05 5.000000e-07)	5
0.004694205   	T             	7.730000e+02	(0.000000e+00 5.000000e-07 5.000000e-07)	5	8.954308e+02	(2.450000e-05 7.450000e-05 5.000000e-07)	5
0.004768935   	T             	7.730000e+02	(0.000000e+00 5.000000e-07 5.000000e-07)	5	9.007423e+02	(2.450000e-05 7.450000e-05 5.000000e-07)	5
0.004842612   	T             	7.730000e+02	(0.000000e+00 5.000000e-07 5.000000e-07)	5	9.063302e+02	(2.450000e-05 7.450000e-05 5.000000e-07)	5
0.004916289   	T             	7.730000e+02	(0.000000e+00 5.000000e-07 5.000000e-07)	5	9.122998e+02	(2.450000e-05 7.450000e-05 5.000000e-07)	5
0.004988913   	T             	7.730000e+02	(0.000000e+00 5.000000e-07 5.000000e-07)	5	9.185843e+02	(2.450000e-05 7.450000e-05 5.000000e-07)	5
0.0050605     	T             	7.730000e+02	(0.000000e+00 5.000000e-07 5.000000e-07)	5	9.251945e+02	(2.450000e-05 7.450000e-05 5.000000e-07)	5
0.005132087   	T             	7.730000e+02	(0.000000e+00 5.000000e-07 5.000000e-07)	5	9.322425e+02	(2.450000e-05 7.450000e-05 5.000000e-07)	5
0.005202636   	T             	7.730000e+02	(0.000000e+00 5.000000e-07 5.000000e-07)	5	9.396292e+02	(2.450000e-05 7.450000e-05 5.000000e-07)	5
0.005273186   	T             	7.730000e+02	(0.000000e+00 5.000000e-07 5.000000e-07)	5	9.474632e+02	(2.450000e-05 7.450000e-05 5.000000e-07)	5
0.005342698   	T             	7.730000e+02	(0.000000e+00 5.000000e-07 5.000000e-07)	5	9.556109e+02	(2.450000e-05 7.450000e-05 5.000000e-07)	5
0.005411188   	T             	7.730000e+02	(0.000000e+00 5.000000e-07 5.000000e-07)	5	9.640363e+02	(2.450000e-05 7.450000e-05 5.000000e-07)	5
0.005479677   	T             	7.730000e+02	(0.000000e+00 5.000000e-07 5.000000e-07)	5	9.728257e+02	(2.450000e-05 7.450000e-05 5.000000e-07)	5
0.005547145   	T             	7.730000e+02	(0.000000e+00 5.000000e-07 5.000000e-07)	5	9.817899e+02	(2.450000e-05 7.450000e-05 5.000000e-07)	5
0.005613605   	T             	7.730000e+02	(0.000000e+00 5.000000e-07 5.000000e-07)	5	9.908595e+02	(2.450000e-05 7.450000e-05 5.000000e-07)	5
0.005680066   	T             	7.730000e+02	(0.000000e+00 5.000000e-07 5.000000e-07)	5	1.000101e+03	(2.450000e-05 7.450000e-05 5.000000e-07)	5
0.005745519   	T             	7.730000e+02	(0.000000e+00 5.000000e-07 5.000000e-07)	5	1.009299e+03	(2.450000e-05 7.450000e-05 5.000000e-07)	5
0.005810973   	T             	7.730000e+02	(0.000000e+00 5.000000e-07 5.000000e-07)	5	1.018520e+03	(2.450000e-05 7.450000e-05 5.000000e-07)	5
0.005875419   	T             	7.730000e+02	(0.000000e+00 5.000000e-07 5.000000e-07)	5	1.027555e+03	(2.450000e-05 7.450000e-05 5.000000e-07)	5
0.005939866   	T             	7.730000e+02	(0.000000e+00 5.000000e-07 5.000000e-07)	5	1.036485e+03	(2.450000e-05 7.450000e-05 5.000000e-07)	5
0.006003306   	T             	7.730000e+02	(0.000000e+00 5.000000e-07 5.000000e-07)	5	1.045119e+03	(2.450000e-05 7.450000e-05 5.000000e-07)	5
0.006066745   	T             	7.730000e+02	(0.000000e+00 5.000000e-07 5.000000e-07)	5	1.053553e+03	(2.450000e-05 7.450000e-05 5.000000e-07)	5
0.006129178   	T             	7.730000e+02	(0.000000e+00 5.000000e-07 5.000000e-07)	5	1.061625e+03	(2.450000e-05 7.450000e-05 5.000000e-07)	5
0.00619161    	T             	7.730000e+02	(0.000000e+00 5.000000e-07 5.000000e-07)	5	1.069444e+03	(2.450000e-05 7.450000e-05 5.000000e-07)	5
0.006254043   	T             	7.730000e+02	(0.000000e+00 5.000000e-07 5.000000e-07)	5	1.076989e+03	(2.450000e-05 7.450000e-05 5.000000e-07)	5
0.006315452   	T             	7.730000e+02	(0.000000e+00 5.000000e-07 5.000000e-07)	5	1.084135e+03	(2.450000e-05 7.450000e-05 5.000000e-07)	5
0.006376861   	T             	7.730000e+02	(0.000000e+00 5.000000e-07 5.000000e-07)	5	1.090998e+03	(2.450000e-05 7.450000e-05 5.000000e-07)	5
0.00643827    	T             	7.730000e+02	(0.000000e+00 5.000000e-07 5.000000e-07)	5	1.097578e+03	(2.450000e-05 7.450000e-05 5.000000e-07)	5
0.006498639   	T             	7.730000e+02	(0.000000e+00 5.000000e-07 5.000000e-07)	5	1.103773e+03	(2.450000e-05 7.450000e-05 5.000000e-07)	5
0.006559007   	T             	7.730000e+02	(0.000000e+00 5.000000e-07 5.000000e-07)	5	1.109699e+03	(2.450000e-05 7.450000e-05 5.000000e-07)	5
0.006619375   	T             	7.730000e+02	(0.000000e+00 5.000000e-07 5.000000e-07)	5	1.115364e+03	(2.450000e-05 7.450000e-05 5.000000e-07)	5
0.006678685   	T             	7.730000e+02	(0.000000e+00 5.000000e-07 5.000000e-07)	5	1.120683e+03	(2.450000e-05 7.450000e-05 5.000000e-07)	5
0.006737994   	T             	7.730000e+02	(0.000000e+00 5.000000e-07 5.000000e-07)	5	1.125773e+03	(2.350000e-05 7.550000e-05 5.000000e-07)	5
0.006797303   	T             	7.730000e+02	(0.000000e+00 5.000000e-07 5.000000e-07)	5	1.130706e+03	(2.350000e-05 7.550000e-05 5.000000e-07)	5
0.006856612   	T             	7.730000e+02	(0.000000e+00 5.000000e-07 5.000000e-07)	5	1.135419e+03	(2.350000e-05 7.550000e-05 5.000000e-07)	5
0.006914823   	T             	7.730000e+02	(0.000000e+00 5.000000e-07 5.000000e-07)	5	1.139842e+03	(2.350000e-05 7.550000e-05 5.000000e-07)	5
0.006973034   	T             	7.730000e+02	(0.000000e+00 5.000000e-07 5.000000e-07)	5	1.144069e+03	(2.350000e-05 7.550000e-05 5.000000e-07)	5
0.007031245   	T             	7.730000e+02	(0.000000e+00 5.000000e-07 5.000000e-07)	5	1.148107e+03	(2.350000e-05 7.550000e-05 5.000000e-07)	5
0.007089456   	T             	7.730000e+02	(0.000000e+00 5.000000e-07 5.000000e-07)	5	1.151960e+03	(2.350000e-05 7.550000e-05 5.000000e-07)	5
0.007147667   	T             	7.730000e+02	(0.000000e+00 5.000000e-07 5.000000e-07)	5	1.155632e+03	(2.350000e-05 7.550000e-05 5.000000e-07)	5
0.007204713   	T             	7.730000e+02	(0.000000e+00 5.000000e-07 5.000000e-07)	5	1.159060e+03	(2.350000e-05 7.550000e-05 5.000000e-07)	5
0.00726176    	T             	7.730000e+02	(0.000000e+00 5.000000e-07 5.000000e-07)	5	1.162317e+03	(2.350000e-05 7.550000e-05 5.000000e-07)	5
0.007318807   	T             	7.730000e+02	(0.000000e+00 5.000000e-07 5.000000e-07)	5	1.165399e+03	(2.350000e-05 7.550000e-05 5.000000e-07)	5
0.007375853   	T             	7.730000e+02	(0.000000e+00 5.000000e-07 5.000000e-07)	5	1.168302e+03	(2.350000e-05 7.550000e-05 5.000000e-07)	5
0.0074329     	T             	7.730000e+02	(0.000000e+00 5.000000e-07 5.000000e-07)	5	1.171019e+03	(2.350000e-05 7.550000e-05 5.000000e-07)	5
0.007489947   	T             	7.730000e+02	(0.000000e+00 5.000000e-07 5.000000e-07)	5	1.173537e+03	(2.350000e-05 7.550000e-05 5.000000e-07)	5
0.007546993   	T             	7.730000e+02	(0.000000e+00 5.000000e-07 5.000000e-07)	5	1.175843e+03	(2.350000e-05 7.550000e-05 5.000000e-07)	5
0.00760404    	T             	7.730000e+02	(0.000000e+00 5.000000e-07 5.000000e-07)	5	1.178126e+03	(2.450000e-05 7.450000e-05 5.000000e-07)	5
0.00765976    	T             	7.730000e+02	(0.000000e+00 5.000000e-07 5.000000e-07)	5	1.180289e+03	(2.450000e-05 7.450000e-05 5.000000e-07)	5
0.00771548    	T             	7.730000e+02	(0.000000e+00 5.000000e-07 5.000000e-07)	5	1.182310e+03	(2.450000e-05 7.450000e-05 5.000000e-07)	5
0.0077712     	T             	7.730000e+02	(0.000000e+00 5.000000e-07 5.000000e-07)	5	1.184188e+03	(2.450000e-05 7.450000e-05 5.000000e-07)	5
0.00782692    	T             	7.730000e+02	(0.000000e+00 5.000000e-07 5.000000e-07)	5	1.185924e+03	(2.450000e-05 7.450000e-05 5.000000e-07)	5
0.00788264    	T             	7.730000e+02	(0.000000e+00 5.000000e-07 5.000000e-07)	5	1.187516e+03	(2.450000e-05 7.450000e-05 5.000000e-07)	5
0.00793836    	T             	7.730000e+02	(0.000000e+00 5.000000e-07 5.000000e-07)	5	1.188967e+03	(2.450000e-05 7.450000e-05 5.000000e-07)	5
0.00799408    	T             	7.730000e+02	(0.000000e+00 5.000000e-07 5.000000e-07)	5	1.190278e+03	(2.450000e-05 7.450000e-05 5.000000e-07)	5
0.0080498     	T             	7.730000e+02	(0.000000e+00 5.000000e-07 5.000000e-07)	5	1.191453e+03	(2.450000e-05 7.450000e-05 5.000000e-07)	5
0.00810552    	T             	7.730000e+02	(0.000000e+00 5.000000e-07 5.000000e-07)	5	1.192496e+03	(2.450000e-05 7.450000e-05 5.000000e-07)	5
0.00816124    	T             	7.730000e+02	(0.000000e+00 5.000000e-07 5.000000e-07)	5	1.193414e+03	(2.450000e-05 7.450000e-05 5.000000e-07)	5
0.00821696    	T             	7.730000e+02	(0.000000e+00 5.000000e-07 5.000000e-07)	5	1.194212e+03	(2.450000e-05 7.450000e-05 5.000000e-07)	5
0.00827268    	T             	7.730000e+02	(0.000000e+00 5.000000e-07 5.000000e-07)	5	1.194901e+03	(2.450000e-05 7.450000e-05 5.000000e-07)	5
0.0083284     	T             	7.730000e+02	(0.000000e+00 5.000000e-07 5.000000e-07)	5	1.195717e+03	(2.550000e-05 7.450000e-05 5.000000e-07)	5
0.00838412    	T             	7.730000e+02	(0.000000e+00 5.000000e-07 5.000000e-07)	5	1.196850e+03	(2.550000e-05 7.450000e-05 5.000000e-07)	5
0.00843984    	T             	7.730000e+02	(0.000000e+00 5.000000e-07 5.000000e-07)	5	1.197967e+03	(2.550000e-05 7.450000e-05 5.000000e-07)	5
0.00849556    	T             	7.730000e+02	(0.000000e+00 5.000000e-07 5.000000e-07)	5	1.199073e+03	(2.550000e-05 7.450000e-05 5.000000e-07)	5
0.00855128    	T             	7.730000e+02	(0.000000e+00 5.000000e-07 5.000000e-07)	5	1.200172e+03	(2.550000e-05 7.450000e-05 5.000000e-07)	5
0.008607      	T             	7.730000e+02	(0.000000e+00 5.000000e-07 5.000000e-07)	5	1.201266e+03	(2.550000e-05 7.450000e-05 5.000000e-07)	5
0.00866272    	T             	7.730000e+02	(0.000000e+00 5.000000e-07 5.000000e-07)	5	1.202357e+03	(2.550000e-05 7.450000e-05 5.000000e-07)	5
0.008716211   	T             	7.730000e+02	(0.000000e+00 5.000000e-07 5.000000e-07)	5	1.203399e+03	(2.550000e-05 7.450000e-05 5.000000e-07)	5
0.008769702   	T             	7.730000e+02	(0.000000e+00 5.000000e-07 5.000000e-07)	5	1.204434e+03	(2.550000e-05 7.450000e-05 5.000000e-07)	5
0.008823194   	T             	7.730000e+02	(0.000000e+00 5.000000e-07 5.000000e-07)	5	1.205460e+03	(2.550000e-05 7.450000e-05 5.000000e-07)	5
0.008876685   	T             	7.730000e+02	(0.000000e+00 5.000000e-07 5.000000e-07)	5	1.206472e+03	(2.550000e-05 7.450000e-05 5.000000e-07)	5
0.008930176   	T             	7.730000e+02	(0.000000e+00 5.000000e-07 5.000000e-07)	5	1.207464e+03	(2.550000e-05 7.450000e-05 5.000000e-07)	5
0.008983667   	T             	7.730000e+02	(0.000000e+00 5.000000e-07 5.000000e-07)	5	1.208430e+03	(2.550000e-05 7.450000e-05 5.000000e-07)	5
0.009037158   	T             	7.730000e+02	(0.000000e+00 5.000000e-07 5.000000e-07)	5	1.209362e+03	(2.550000e-05 7.450000e-05 5.000000e-07)	5
0.00909065    	T             	7.730000e+02	(0.000000e+00 5.000000e-07 5.000000e-07)	5	1.210252e+03	(2.550000e-05 7.450000e-05 5.000000e-07)	5
0.009144141   	T             	7.730000e+02	(0.000000e+00 5.000000e-07 5.000000e-07)	5	1.211069e+03	(2.550000e-05 7.450000e-05 5.000000e-07)	5
0.009197632   	T             	7.730000e+02	(0.000000e+00 5.000000e-07 5.000000e-07)	5	1.211843e+03	(2.550000e-05 7.450000e-05 5.000000e-07)	5
0.009251123   	T             	7.730000e+02	(0.000000e+00 5.000000e-07 5.000000e-07)	5	1.212549e+03	(2.550000e-05 7.450000e-05 5.000000e-07)	5
0.009304614   	T             	7.730000e+02	(0.000000e+00 5.000000e-07 5.000000e-07)	5	1.213165e+03	(2.550000e-05 7.450000e-05 5.000000e-07)	5
0.009358106   	T             	7.730000e+02	(0.000000e+00 5.000000e-07 5.000000e-07)	5	1.213693e+03	(2.550000e-05 7.450000e-05 5.000000e-07)	5
0.009411597   	T             	7.730000e+02	(0.000000e+00 5.000000e-07 5.000000e-07)	5	1.214179e+03	(2.650000e-05 7.450000e-05 5.000000e-07)	5
0.009465088   	T             	7.730000e+02	(0.000000e+00 5.000000e-07 5.000000e-07)	5	1.215043e+03	(2.650000e-05 7.450000e-05 5.000000e-07)	5
0.009518579   	T             	7.730000e+02	(0.000000e+00 5.000000e-07 5.000000e-07)	5	1.215869e+03	(2.650000e-05 7.450000e-05 5.000000e-07)	5
0.00957207    	T             	7.730000e+02	(0.000000e+00 5.000000e-07 5.000000e-07)	5	1.216654e+03	(2.650000e-05 7.450000e-05 5.000000e-07)	5
0.009625562   	T             	7.730000e+02	(0.000000e+00 5.000000e-07 5.000000e-07)	5	1.217392e+03	(2.650000e-05 7.450000e-05 5.000000e-07)	5
0.009679053   	T             	7.730000e+02	(0.000000e+00 5.000000e-07 5.000000e-07)	5	1.218081e+03	(2.650000e-05 7.450000e-05 5.000000e-07)	5
0.009732544   	T             	7.730000e+02	(0.000000e+00 5.000000e-07 5.000000e-07)	5	1.218717e+03	(2.650000e-05 7.450000e-05 5.000000e-07)	5
0.009786035   	T             	7.730000e+02	(0.000000e+00 5.000000e-07 5.000000e-07)	5	1.219296e+03	(2.650000e-05 7.450000e-05 5.000000e-07)	5
0.009839526   	T             	7.730000e+02	(0.000000e+00 5.000000e-07 5.000000e-07)	5	1.219817e+03	(2.650000e-05 7.450000e-05 5.000000e-07)	5
0.009893018   	T             	7.730000e+02	(0.000000e+00 5.000000e-07 5.000000e-07)	5	1.220277e+03	(2.650000e-05 7.450000e-05 5.000000e-07)	5
0.009946509   	T             	7.730000e+02	(0.000000e+00 5.000000e-07 5.000000e-07)	5	1.220676e+03	(2.650000e-05 7.450000e-05 5.000000e-07)	5
0.01          	T             	7.730000e+02	(0.000000e+00 5.000000e-07 5.000000e-07)	5	1.221012e+03	(2.650000e-05 7.450000e-05 5.000000e-07)	5
0.01005525    	T             	7.730000e+02	(0.000000e+00 5.000000e-07 5.000000e-07)	5	1.221293e+03	(2.650000e-05 7.450000e-05 5.000000e-07)	5
0.0101105     	T             	7.730000e+02	(0.000000e+00 5.000000e-07 5.000000e-07)	5	1.221507e+03	(2.650000e-05 7.450000e-05 5.000000e-07)	5
0.01016575    	T             	7.730000e+02	(0.000000e+00 5.000000e-07 5.000000e-07)	5	1.221638e+03	(2.650000e-05 7.450000e-05 5.000000e-07)	5
0.01022099    	T             	7.730000e+02	(0.000000e+00 5.000000e-07 5.000000e-07)	5	1.221716e+03	(2.650000e-05 7.450000e-05 5.000000e-07)	5
0.01027624    	T             	7.730000e+02	(0.000000e+00 5.000000e-07 5.000000e-07)	5	1.221730e+03	(2.650000e-05 7.450000e-05 5.000000e-07)	5
0.01033149    	T             	7.730000e+02	(0.000000e+00 5.000000e-07 5.000000e-07)	5	1.221950e+03	(2.750000e-05 7.450000e-05 5.000000e-07)	5
0.01038674    	T             	7.730000e+02	(0.000000e+00 5.000000e-07 5.000000e-07)	5	1.222386e+03	(2.750000e-05 7.450000e-05 5.000000e-07)	5
0.01044199    	T             	7.730000e+02	(0.000000e+00 5.000000e-07 5.000000e-07)	5	1.222824e+03	(2.750000e-05 7.450000e-05 5.000000e-07)	5
0.01049724    	T             	7.730000e+02	(0.000000e+00 5.000000e-07 5.000000e-07)	5	1.223260e+03	(2.750000e-05 7.450000e-05 5.000000e-07)	5
0.01055281    	T             	7.730000e+02	(0.000000e+00 5.000000e-07 5.000000e-07)	5	1.223697e+03	(2.750000e-05 7.450000e-05 5.000000e-07)	5
0.01060838    	T             	7.730000e+02	(0.000000e+00 5.000000e-07 5.000000e-07)	5	1.224128e+03	(2.750000e-05 7.450000e-05 5.000000e-07)	5
0.01066395    	T             	7.730000e+02	(0.000000e+00 5.000000e-07 5.000000e-07)	5	1.224548e+03	(2.750000e-05 7.450000e-05 5.000000e-07)	5
0.01071952    	T             	7.730000e+02	(0.000000e+00 5.000000e-07 5.000000e-07)	5	1.224952e+03	(2.750000e-05 7.450000e-05 5.000000e-07)	5
0.0107751     	T             	7.730000e+02	(0.000000e+00 5.000000e-07 5.000000e-07)	5	1.225333e+03	(2.750000e-05 7.450000e-05 5.000000e-07)	5
0.01083067    	T             	7.730000e+02	(0.000000e+00 5.000000e-07 5.000000e-07)	5	1.225682e+03	(2.750000e-05 7.450000e-05 5.000000e-07)	5
0.01088624    	T             	7.730000e+02	(0.000000e+00 5.000000e-07 5.000000e-07)	5	1.225990e+03	(2.750000e-05 7.450000e-05 5.000000e-07)	5
0.01094181    	T             	7.730000e+02	(0.000000e+00 5.000000e-07 5.000000e-07)	5	1.226249e+03	(2.750000e-05 7.450000e-05 5.000000e-07)	5
0.01099738    	T             	7.730000e+02	(0.000000e+00 5.000000e-07 5.000000e-07)	5	1.226435e+03	(2.750000e-05 7.450000e-05 5.000000e-07)	5
0.01105295    	T             	7.730000e+02	(0.000000e+00 5.000000e-07 5.000000e-07)	5	1.226554e+03	(2.750000e-05 7.450000e-05 5.000000e-07)	5
0.01110853    	T             	7.730000e+02	(0.000000e+00 5.000000e-07 5.000000e-07)	5	1.226751e+03	(2.850000e-05 7.450000e-05 5.000000e-07)	5
0.0111641     	T             	7.730000e+02	(0.000000e+00 5.000000e-07 5.000000e-07)	5	1.227225e+03	(2.850000e-05 7.450000e-05 5.000000e-07)	5
0.01122002    	T             	7.730000e+02	(0.000000e+00 5.000000e-07 5.000000e-07)	5	1.227677e+03	(2.850000e-05 7.450000e-05 5.000000e-07)	5
0.01127594    	T             	7.730000e+02	(0.000000e+00 5.000000e-07 5.000000e-07)	5	1.228094e+03	(2.850000e-05 7.450000e-05 5.000000e-07)	5
0.01133187    	T             	7.730000e+02	(0.000000e+00 5.000000e-07 5.000000e-07)	5	1.228468e+03	(2.850000e-05 7.450000e-05 5.000000e-07)	5
0.01138779    	T             	7.730000e+02	(0.000000e+00 5.000000e-07 5.000000e-07)	5	1.228788e+03	(2.850000e-05 7.450000e-05 5.000000e-07)	5
0.01144372    	T             	7.730000e+02	(0.000000e+00 5.000000e-07 5.000000e-07)	5	1.229043e+03	(2.850000e-05 7.450000e-05 5.000000e-07)	5
0.01149964    	T             	7.730000e+02	(0.000000e+00 5.000000e-07 5.000000e-07)	5	1.229220e+03	(2.850000e-05 7.450000e-05 5.000000e-07)	5
0.01155556    	T             	7.730000e+02	(0.000000e+00 5.000000e-07 5.000000e-07)	5	1.229306e+03	(2.850000e-05 7.450000e-05 5.000000e-07)	5
0.01161149    	T             	7.730000e+02	(0.000000e+00 5.000000e-07 5.000000e-07)	5	1.229288e+03	(2.850000e-05 7.450000e-05 5.000000e-07)	5
0.01166741    	T             	7.730000e+02	(0.000000e+00 5.000000e-07 5.000000e-07)	5	1.229151e+03	(2.850000e-05 7.450000e-05 5.000000e-07)	5
0.01172371    	T             	7.730000e+02	(0.000000e+00 5.000000e-07 5.000000e-07)	5	1.228883e+03	(2.850000e-05 7.450000e-05 5.000000e-07)	5
0.01178001    	T             	7.730000e+02	(0.000000e+00 5.000000e-07 5.000000e-07)	5	1.228465e+03	(2.850000e-05 7.450000e-05 5.000000e-07)	5
0.01183631    	T             	7.730000e+02	(0.000000e+00 5.000000e-07 5.000000e-07)	5	1.228197e+03	(2.950000e-05 7.450000e-05 5.000000e-07)	5
0.01189261    	T             	7.730000e+02	(0.000000e+00 5.000000e-07 5.000000e-07)	5	1.228013e+03	(2.950000e-05 7.450000e-05 5.000000e-07)	5
0.01194892    	T             	7.730000e+02	(0.000000e+00 5.000000e-07 5.000000e-07)	5	1.227742e+03	(2.950000e-05 7.450000e-05 5.000000e-07)	5
0.01200522    	T             	7.730000e+02	(0.000000e+00 5.000000e-07 5.000000e-07)	5	1.227387e+03	(2.950000e-05 7.450000e-05 5.000000e-07)	5
0.01206152    	T             	7.730000e+02	(0.000000e+00 5.000000e-07 5.000000e-07)	5	1.226949e+03	(2.950000e-05 7.450000e-05 5.000000e-07)	5
0.01211822    	T             	7.730000e+02	(0.000000e+00 5.000000e-07 5.000000e-07)	5	1.226426e+03	(2.950000e-05 7.450000e-05 5.000000e-07)	5
0.01217492    	T             	7.730000e+02	(0.000000e+00 5.000000e-07 5.000000e-07)	5	1.225823e+03	(2.950000e-05 7.450000e-05 5.000000e-07)	5
0.01223163    	T             	7.730000e+02	(0.000000e+00 5.000000e-07 5.000000e-07)	5	1.225141e+03	(2.950000e-05 7.450000e-05 5.000000e-07)	5
0.01228833    	T             	7.730000e+02	(0.000000e+00 5.000000e-07 5.000000e-07)	5	1.224380e+03	(2.950000e-05 7.450000e-05 5.000000e-07)	5
0.01234504    	T             	7.730000e+02	(0.000000e+00 5.000000e-07 5.000000e-07)	5	1.223538e+03	(2.950000e-05 7.450000e-05 5.000000e-07)	5
0.01240174    	T             	7.730000e+02	(0.000000e+00 5.000000e-07 5.000000e-07)	5	1.222613e+03	(2.950000e-05 7.450000e-05 5.000000e-07)	5
0.01245844    	T             	7.730000e+02	(0.000000e+00 5.000000e-07 5.000000e-07)	5	1.222056e+03	(2.850000e-05 3.850000e-05 5.000000e-07)	5
0.01251558    	T             	7.730000e+02	(0.000000e+00 5.000000e-07 5.000000e-07)	5	1.223784e+03	(2.850000e-05 3.850000e-05 5.000000e-07)	5
0.01257271    	T             	7.730000e+02	(0.000000e+00 5.000000e-07 5.000000e-07)	5	1.225496e+03	(2.850000e-05 3.850000e-05 5.000000e-07)	5