# Residuals   
# Time        	T             
1             	1.000000e+00
