/*--------------------------------*- C++ -*----------------------------------*\
  =========                 |
  \\      /  F ield         | OpenFOAM: The Open Source CFD Toolbox
   \\    /   O peration     | Website:  https://openfoam.org
    \\  /    A nd           | Version:  7
     \\/     M anipulation  |
\*---------------------------------------------------------------------------*/
FoamFile
{
    version     2.0;
    format      ascii;
    class       volScalarField;
    location    "0";
    object      p;
}
// * * * * * * * * * * * * * * * * * * * * * * * * * * * * * * * * * * * * * //

dimensions      [1 -1 -2 0 0 0 0];

internalField   nonuniform List<scalar> 
48000
(
215.101
215.1
215.1
215.099
215.099
215.098
215.097
215.097
215.096
215.096
215.096
215.096
215.096
215.096
215.096
215.097
215.098
215.1
215.101
215.103
215.106
215.108
215.111
215.113
215.114
215.115
215.114
215.015
214.922
214.828
214.732
214.635
214.537
214.438
214.337
214.235
214.132
214.026
213.919
213.809
213.696
213.581
213.463
213.342
213.218
213.089
212.958
212.958
212.958
212.958
212.958
212.958
212.814
212.668
212.522
212.377
212.231
212.084
211.934
211.782
211.627
211.466
211.301
211.13
210.952
210.767
210.572
210.359
210.107
210.107
210.107
210.107
210.107
210.107
210.107
210.107
210.107
210.107
210.107
210.107
210.107
203.276
197.768
192.743
187.728
182.251
175.477
175.477
175.477
175.477
175.477
175.477
175.477
175.477
175.477
175.477
175.02
174.546
174.044
173.513
172.951
172.359
171.739
171.091
170.417
169.719
169.002
168.271
167.531
166.788
166.048
165.314
164.588
163.861
163.123
163.122
163.122
163.122
163.123
163.124
163.071
162.972
162.852
162.715
162.557
162.372
162.147
161.866
161.505
161.037
160.432
159.661
158.695
157.517
156.124
154.533
152.788
150.968
149.189
147.629
146.571
146.398
146.428
146.446
146.441
146.417
146.382
146.34
146.292
146.234
146.162
146.066
145.936
145.756
145.509
145.175
144.731
144.135
143.318
142.206
140.878
139.758
138.942
138.267
137.644
137.108
136.673
136.33
136.072
135.896
135.805
135.8
135.841
136.563
136.379
135.937
135.531
135.189
134.907
134.677
134.486
134.32
134.162
133.99
133.782
133.51
133.145
132.654
132.01
131.195
130.198
129.008
127.699
126.978
128.421
128.476
128.434
128.233
127.922
127.557
127.177
126.8
126.43
126.064
125.7
125.338
124.986
124.66
124.374
124.129
123.921
123.747
123.6
123.476
123.372
123.284
123.21
123.148
123.096
123.052
123.014
122.982
122.956
122.935
122.922
122.918
122.928
122.951
122.974
122.986
122.152
121.164
120.043
118.849
117.624
116.402
115.204
114.049
112.948
111.908
110.928
110.002
109.119
108.264
107.42
106.566
105.685
104.759
103.773
102.718
101.592
100.4
99.1571
97.8889
96.6324
95.4366
94.361
93.4724
92.854
92.878
92.9045
92.9219
92.9256
92.9171
92.8998
92.8767
92.8492
92.8178
92.782
92.7407
92.6918
92.6333
92.5622
92.4753
92.3692
92.24
92.0837
91.8966
91.6754
91.418
91.1275
90.8159
90.4993
90.1821
89.8608
89.5343
89.2019
88.8645
88.5303
88.2284
88.0204
87.9682
88.0187
89.2835
88.119
86.397
84.8621
83.6092
82.662
81.9905
81.5451
81.2697
81.1131
81.0333
80.9966
80.9764
80.9503
80.8981
80.8002
80.6384
80.399
80.0745
79.6726
79.2327
79.0393
79.6885
79.7247
79.7194
79.6354
79.4748
79.2401
78.9283
78.5329
78.0383
77.4359
76.7095
75.7497
74.5518
73.3295
72.327
71.5924
71.0526
70.649
70.3446
70.1192
69.955
69.8358
69.7485
69.6828
69.6314
69.5895
69.5555
69.5307
69.5193
69.5268
69.5607
69.6467
68.7719
67.2569
65.3947
63.3594
61.3122
59.3729
57.6154
56.0768
54.7663
53.6735
52.7765
52.047
51.4549
50.9708
50.5681
50.225
49.9248
49.6563
49.412
49.1863
48.964
48.9633
48.9638
48.9649
48.9654
48.9648
48.3656
47.7599
47.1333
46.4845
45.8166
45.1353
44.4479
43.7622
43.0853
42.4238
41.7826
41.1653
40.5736
40.0077
39.4665
38.9468
38.4426
37.939
37.391
37.391
37.391
37.391
37.391
37.391
37.391
37.3911
37.3911
37.3911
37.3911
31.0348
25.8888
21.1682
16.4298
11.2276
4.76626
4.76625
4.76625
4.76625
4.76624
4.76625
4.76625
4.76627
4.76627
4.76625
4.76621
4.76616
4.76613
4.53462
4.33936
4.15971
3.98886
3.82432
3.66506
3.51049
3.36014
3.21344
3.06981
2.92863
2.78934
2.65142
2.5146
2.37851
2.24334
2.11263
2.11292
2.11318
2.11348
2.11368
2.1138
1.94703
1.80441
1.67298
1.54741
1.42561
1.30668
1.1902
1.07586
0.963376
0.852424
0.74267
0.633788
0.525516
0.417716
0.310306
0.203224
0.0960039
-0.0178834
-0.0186699
-0.0185085
-0.0174752
-0.0157129
-0.0134453
-0.0109222
-0.00836074
-0.00592223
-0.00371145
-0.00178488
-0.000161369
0.00116705
0.00222544
0.00304768
0.00366818
0.00410864
0.00436635
0.0044533
0.00432604
0.00267301
215.101
215.101
215.1
215.1
215.099
215.098
215.098
215.097
215.097
215.097
215.097
215.097
215.097
215.097
215.098
215.099
215.1
215.101
215.103
215.105
215.107
215.109
215.111
215.113
215.114
215.115
215.114
215.015
214.923
214.829
214.733
214.636
214.538
214.439
214.338
214.237
214.133
214.028
213.921
213.811
213.699
213.584
213.467
213.346
213.222
213.092
212.958
212.958
212.958
212.958
212.958
212.959
212.814
212.667
212.522
212.377
212.232
212.086
211.937
211.786
211.631
211.471
211.307
211.136
210.959
210.777
210.589
210.399
210.218
210.107
210.107
210.107
210.107
210.107
210.107
210.107
210.107
210.107
210.107
210.107
206.626
201.952
197.286
192.733
188.189
183.548
178.913
175.477
175.477
175.477
175.477
175.477
175.477
175.477
175.477
175.477
175.039
174.573
174.074
173.543
172.981
172.388
171.767
171.117
170.44
169.739
169.017
168.28
167.534
166.785
166.041
165.307
164.588
163.875
163.123
163.123
163.122
163.122
163.124
163.124
163.123
162.992
162.87
162.735
162.585
162.411
162.204
161.945
161.611
161.174
160.599
159.855
158.907
157.733
156.322
154.686
152.864
150.926
148.971
147.127
146.125
146.33
146.389
146.407
146.404
146.384
146.352
146.309
146.257
146.193
146.111
146.004
145.862
145.672
145.416
145.073
144.625
144.039
143.259
142.17
140.895
139.776
139.008
138.348
137.72
137.188
136.766
136.431
136.179
136.006
135.908
135.884
135.977
136.429
136.637
135.902
135.466
135.13
134.855
134.637
134.461
134.313
134.175
134.026
133.845
133.604
133.27
132.807
132.182
131.376
130.39
129.129
127.111
127.115
128.149
128.346
128.29
128.104
127.826
127.493
127.14
126.783
126.426
126.07
125.716
125.365
125.023
124.707
124.429
124.187
123.981
123.804
123.654
123.527
123.418
123.327
123.249
123.184
123.129
123.082
123.043
123.01
122.984
122.964
122.952
122.95
122.959
122.98
123.011
123.071
122.365
121.296
120.116
118.879
117.623
116.377
115.161
113.994
112.887
111.847
110.873
109.959
109.091
108.254
107.429
106.594
105.731
104.819
103.842
102.79
101.658
100.451
99.1824
97.8771
96.5717
95.3165
94.174
93.1896
92.714
92.8385
92.8762
92.8925
92.8968
92.8901
92.8747
92.8527
92.8253
92.7928
92.7548
92.7103
92.6576
92.5947
92.5191
92.428
92.3181
92.186
92.0285
91.8425
91.6255
91.3758
91.0944
90.7911
90.4839
90.1751
89.8606
89.5434
89.2258
88.9114
88.608
88.3376
88.1478
88.0877
88.2873
89.3353
88.6764
86.2101
84.5799
83.3037
82.3862
81.7644
81.3752
81.1508
81.0364
80.9901
80.9802
80.9823
80.9764
80.9437
80.8641
80.7162
80.4839
80.152
79.7106
78.9863
79.1476
79.5647
79.6479
79.6255
79.5347
79.3753
79.1447
78.8373
78.4464
77.9523
77.3521
76.6497
75.6983
74.5637
73.3927
72.3879
71.6835
71.1511
70.743
70.4305
70.1967
70.0232
69.8939
69.797
69.7234
69.6663
69.6215
69.5871
69.5635
69.5533
69.561
69.5857
69.6022
69.1571
67.604
65.5679
63.3712
61.2042
59.1911
57.3966
55.8487
54.5484
53.4779
52.609
51.9097
51.347
50.8893
50.5086
50.182
49.8932
49.632
49.3936
49.1764
48.9648
48.9633
48.9638
48.9649
48.9655
48.9642
48.3778
47.7807
47.1556
46.5037
45.8299
45.1414
44.4464
43.7533
43.07
42.4034
41.7588
41.1396
40.5477
39.9831
39.4448
38.9313
38.4422
37.9832
37.587
37.391
37.391
37.391
37.3911
37.3911
37.3911
37.3911
37.3911
37.3911
34.1732
29.8247
25.4633
21.186
16.8935
12.4867
8.06545
4.76626
4.76624
4.76623
4.76623
4.76624
4.76625
4.76627
4.76628
4.76626
4.7662
4.7661
4.66434
4.49867
4.3236
4.15083
3.98252
3.81903
3.66034
3.50627
3.35645
3.21035
3.06733
2.92671
2.78789
2.65036
2.51374
2.37781
2.24229
2.11241
2.11283
2.11318
2.11353
2.11387
2.04393
1.92189
1.79384
1.66745
1.54378
1.42277
1.30424
1.18805
1.07399
0.961821
0.851203
0.741773
0.633168
0.525105
0.417445
0.310201
0.203466
0.0974743
-0.0171015
-0.0184793
-0.0183599
-0.0174283
-0.0159029
-0.013942
-0.0117351
-0.00945597
-0.00723921
-0.00517882
-0.00333275
-0.00172937
-0.000374795
0.000739819
0.00163182
0.00232037
0.00281284
0.0030924
0.00319801
0.00327968
0.00225894
215.101
215.101
215.1
215.1
215.099
215.099
215.098
215.098
215.098
215.098
215.097
215.098
215.098
215.098
215.099
215.1
215.101
215.103
215.104
215.106
215.108
215.11
215.112
215.114
215.115
215.116
215.115
215.017
214.926
214.832
214.736
214.639
214.54
214.441
214.341
214.24
214.137
214.033
213.926
213.817
213.705
213.59
213.473
213.353
213.23
213.102
212.958
212.958
212.958
212.958
212.958
212.959
212.812
212.666
212.522
212.378
212.235
212.09
211.943
211.794
211.64
211.482
211.318
211.148
210.973
210.793
210.61
210.429
210.257
210.107
210.107
210.107
210.107
210.107
210.107
210.107
210.107
210.107
210.107
207.476
204.339
200.621
196.69
192.715
188.747
184.837
181.151
178.055
175.477
175.477
175.477
175.477
175.477
175.477
175.477
175.477
175.085
174.633
174.136
173.604
173.04
172.447
171.823
171.17
170.487
169.778
169.047
168.298
167.539
166.777
166.023
165.286
164.582
163.933
163.391
163.124
163.121
163.122
163.124
163.125
163.123
163.015
162.9
162.772
162.635
162.484
162.312
162.1
161.822
161.447
160.937
160.251
159.347
158.185
156.745
155.026
153.055
150.903
148.64
146.671
146.363
146.346
146.382
146.399
146.392
146.37
146.337
146.294
146.241
146.176
146.094
145.989
145.851
145.67
145.426
145.101
144.691
144.172
143.55
142.441
140.607
139.444
138.883
138.326
137.713
137.159
136.756
136.43
136.188
136.016
135.906
135.866
135.877
135.702
135.647
135.567
135.3
135.01
134.748
134.553
134.409
134.297
134.198
134.095
133.968
133.791
133.525
133.123
132.535
131.737
130.857
130.005
129.524
128.757
128.383
128.419
128.319
128.099
127.805
127.463
127.116
126.769
126.42
126.072
125.725
125.376
125.028
124.712
124.439
124.203
124
123.826
123.678
123.55
123.442
123.35
123.271
123.205
123.149
123.101
123.061
123.028
123.001
122.981
122.968
122.965
122.974
122.996
123.05
123.251
122.772
121.54
120.245
118.927
117.613
116.321
115.07
113.879
112.76
111.721
110.76
109.869
109.032
108.232
107.446
106.652
105.824
104.942
103.986
102.941
101.8
100.563
99.2443
97.8654
96.4607
95.0836
93.829
92.9258
92.849
92.8413
92.8663
92.8817
92.8837
92.8756
92.8598
92.8376
92.81
92.7769
92.738
92.6924
92.6384
92.5744
92.4979
92.4063
92.2966
92.1655
92.0098
91.8272
91.6149
91.3696
91.0874
90.7772
90.4746
90.1742
89.8631
89.5507
89.2403
88.933
88.6281
88.3319
88.0987
87.9889
87.9852
87.4768
85.8868
85.187
83.9437
82.6395
81.8147
81.3057
81.0404
80.9219
80.8916
80.9106
80.9517
80.9962
81.0294
81.0361
80.9963
80.8783
80.6683
80.3391
80.0316
79.8729
79.7951
79.6489
79.6633
79.6253
79.5237
79.3653
79.1428
78.8452
78.4724
77.9821
77.4476
76.8811
75.924
74.5899
73.1653
72.124
71.569
71.0906
70.7183
70.4208
70.1992
70.0341
69.909
69.8137
69.7403
69.6828
69.6375
69.6024
69.5777
69.5655
69.569
69.5879
69.6431
69.9106
68.4341
65.9017
63.3534
60.9424
58.7906
56.9313
55.3729
54.1009
53.0804
52.2719
51.6358
51.1339
50.7308
50.3949
50.1014
49.8341
49.585
49.3541
49.1481
48.9647
48.9621
48.9633
48.9653
48.9665
48.9649
48.4112
47.8297
47.2049
46.5448
45.858
45.154
44.4429
43.7345
43.0381
42.3611
41.7094
41.0868
40.4945
39.9323
39.3984
38.8914
38.4112
37.9648
37.5831
37.391
37.391
37.391
37.3911
37.3911
37.3911
37.3911
37.3911
34.9842
32.0858
28.6275
24.9537
21.2191
17.4717
13.7602
10.2424
7.26854
4.7662
4.76619
4.76621
4.76623
4.76625
4.76627
4.76629
4.76625
4.76618
4.76602
4.62827
4.47158
4.30538
4.13739
3.97131
3.80891
3.65099
3.49778
3.34903
3.20417
3.06241
2.92295
2.78508
2.64829
2.51221
2.37661
2.24126
2.11227
2.11275
2.11318
2.11361
2.11411
2.01912
1.90372
1.78226
1.65955
1.53767
1.4175
1.29948
1.18374
1.07023
0.958692
0.848772
0.740022
0.632
0.524355
0.416929
0.309782
0.203159
0.0974595
-0.0176282
-0.0191024
-0.0189597
-0.0180133
-0.0165275
-0.0146506
-0.0125507
-0.0103799
-0.0082558
-0.00626197
-0.00445235
-0.00285648
-0.00148516
-0.000336047
0.000601488
0.00134175
0.00189
0.00222983
0.00243088
0.00277591
0.00221001
215.102
215.101
215.1
215.1
215.099
215.099
215.099
215.098
215.098
215.098
215.098
215.098
215.099
215.099
215.1
215.101
215.102
215.103
215.105
215.107
215.109
215.111
215.113
215.115
215.117
215.118
215.118
215.022
214.931
214.837
214.74
214.642
214.544
214.444
214.345
214.244
214.143
214.039
213.933
213.824
213.713
213.598
213.481
213.363
213.245
213.128
213.02
212.958
212.958
212.958
212.958
212.959
212.806
212.663
212.521
212.38
212.238
212.096
211.952
211.805
211.654
211.498
211.335
211.166
210.991
210.811
210.629
210.449
210.275
210.107
210.107
210.107
210.107
210.107
210.107
210.107
210.107
208.788
207.517
205.352
202.635
199.501
196.14
192.69
189.247
185.904
182.798
180.116
177.991
176.75
175.477
175.477
175.477
175.477
175.477
175.477
175.194
174.739
174.233
173.696
173.13
172.535
171.909
171.251
170.561
169.841
169.094
168.327
167.547
166.763
165.987
165.233
164.521
163.882
163.365
163.11
163.117
163.121
163.125
163.129
163.137
163.068
162.945
162.819
162.697
162.58
162.461
162.321
162.13
161.854
161.45
160.866
160.044
158.917
157.446
155.617
153.426
150.992
148.014
145.743
146.294
146.389
146.411
146.414
146.398
146.37
146.334
146.291
146.241
146.18
146.107
146.014
145.893
145.737
145.523
145.233
144.947
144.57
144.33
144.403
138.461
138.638
138.675
138.321
137.542
136.957
136.648
136.337
136.112
135.949
135.828
135.747
135.681
135.549
135.425
135.417
135.157
134.863
134.573
134.419
134.325
134.267
134.225
134.188
134.142
134.066
133.916
133.623
133.099
132.181
131.296
130.511
129.62
129.224
128.881
128.699
128.467
128.174
127.835
127.456
127.1
126.757
126.415
126.072
125.729
125.375
125.005
124.677
124.407
124.18
123.985
123.818
123.674
123.55
123.445
123.355
123.278
123.213
123.157
123.11
123.07
123.037
123.009
122.987
122.972
122.964
122.968
122.988
123.018
122.98
123.042
121.846
120.398
118.972
117.58
116.224
114.92
113.691
112.554
111.516
110.577
109.723
108.937
108.196
107.473
106.741
105.973
105.141
104.219
103.189
102.036
100.758
99.3662
97.8796
96.3222
94.7281
93.1325
92.541
92.8155
92.8587
92.876
92.8851
92.8826
92.8713
92.8534
92.8301
92.8019
92.7689
92.7303
92.6852
92.6322
92.5697
92.4953
92.4067
92.3008
92.1741
92.0232
91.8463
91.64
91.3965
91.1024
90.7698
90.4682
90.1787
89.8678
89.5564
89.249
88.9409
88.6152
88.2555
87.9251
87.6479
87.3846
86.9697
86.4994
84.7075
83.3682
81.4959
80.9275
80.6033
80.5589
80.6047
80.6977
80.8088
80.9197
81.0215
81.1089
81.1751
81.2068
81.1325
80.9719
80.5042
80.204
80.0508
79.9393
79.8218
79.7662
79.6927
79.5814
79.4301
79.2225
78.942
78.6523
78.1707
77.6227
77.5749
77.5217
74.5707
71.4544
71.4775
71.2266
70.8548
70.5998
70.3299
70.1367
69.9958
69.887
69.8028
69.7366
69.6833
69.6395
69.6037
69.5757
69.5571
69.5518
69.5673
69.5965
69.5411
69.0293
66.2513
63.1981
60.4215
58.0977
56.1649
54.6107
53.402
52.4711
51.7623
51.2276
50.8222
50.5049
50.239
49.9945
49.7568
49.5199
49.2896
49.074
48.9499
48.9578
48.9622
48.9664
48.9696
48.9703
48.4884
47.9219
47.2896
46.6125
45.9033
45.1738
44.4366
43.7039
42.9866
42.2934
41.6311
41.0035
40.4114
39.853
39.3251
38.8244
38.3465
37.8814
37.3909
37.391
37.391
37.391
37.3911
37.3911
37.3911
36.2091
35.0538
33.0686
30.5585
27.6456
24.5049
21.265
18.0138
14.8401
11.8754
9.29942
7.24129
6.02841
4.76618
4.76622
4.76625
4.76628
4.76629
4.76625
4.76616
4.76596
4.61258
4.45364
4.28877
4.12194
3.95637
3.79427
3.63693
3.48481
3.33771
3.19485
3.05517
2.91756
2.78115
2.64537
2.51002
2.37504
2.24037
2.11221
2.11269
2.11317
2.11368
2.11419
2.00905
1.89257
1.77264
1.65124
1.53002
1.41017
1.29244
1.1772
1.06446
0.953932
0.845145
0.737514
0.630444
0.523458
0.416322
0.309103
0.202113
0.0958513
-0.0194323
-0.0206095
-0.0203044
-0.019192
-0.0175584
-0.0155762
-0.0134121
-0.0112087
-0.00907145
-0.00707327
-0.00526001
-0.0036562
-0.00227029
-0.00109937
-0.00013264
0.000645533
0.00124399
0.0016523
0.00196324
0.00252819
0.00223894
215.102
215.101
215.101
215.1
215.1
215.099
215.099
215.099
215.098
215.098
215.098
215.099
215.099
215.1
215.1
215.101
215.103
215.104
215.106
215.108
215.11
215.112
215.115
215.117
215.119
215.12
215.121
215.031
214.939
214.843
214.745
214.646
214.547
214.448
214.349
214.25
214.15
214.048
213.943
213.835
213.723
213.608
213.491
213.373
213.257
213.145
213.043
212.958
212.958
212.958
212.958
212.903
212.789
212.657
212.52
212.381
212.242
212.103
211.963
211.821
211.674
211.52
211.359
211.19
211.014
210.832
210.647
210.464
210.284
210.107
210.107
210.107
210.107
210.107
210.107
210.107
208.839
207.423
205.821
203.78
201.347
198.608
195.677
192.659
189.648
186.733
184.02
181.621
179.619
178.058
176.69
175.477
175.477
175.477
175.477
175.477
175.477
174.896
174.362
173.817
173.25
172.654
172.027
171.365
170.665
169.929
169.162
168.369
167.559
166.74
165.928
165.138
164.389
163.708
163.095
163.103
163.112
163.119
163.127
163.134
163.145
163.157
162.992
162.861
162.755
162.676
162.631
162.592
162.524
162.39
162.142
161.72
161.045
159.993
158.505
156.571
154.041
151.625
149.428
146.604
146.415
146.466
146.475
146.451
146.418
146.38
146.34
146.297
146.25
146.199
146.139
146.066
145.974
145.86
145.695
145.417
145.231
145.175
143.47
142.977
140.311
139.13
139.156
138.89
136.509
136.584
136.443
136.149
135.973
135.838
135.721
135.627
135.542
135.437
135.329
135.241
135.048
134.712
134.261
134.223
134.207
134.22
134.249
134.29
134.347
134.414
134.449
134.356
134.056
132.593
131.632
130.382
130.002
129.636
129.292
128.984
128.641
128.277
127.86
127.445
127.08
126.745
126.41
126.074
125.738
125.379
124.977
124.602
124.34
124.125
123.942
123.786
123.651
123.533
123.432
123.346
123.273
123.211
123.158
123.112
123.073
123.04
123.011
122.987
122.967
122.953
122.947
122.955
122.973
123.04
123.49
122.405
120.53
118.983
117.51
116.074
114.697
113.411
112.247
111.214
110.308
109.511
108.798
108.141
107.508
106.867
106.185
105.428
104.562
103.559
102.397
101.068
99.5826
97.9645
96.2202
94.3743
92.8295
92.9209
92.8597
92.884
92.9001
92.9002
92.8901
92.8735
92.8524
92.8274
92.7988
92.7662
92.7289
92.6857
92.6355
92.5765
92.5068
92.424
92.3252
92.2059
92.0619
91.8931
91.6961
91.4547
91.1219
90.76
90.4565
90.1821
89.8728
89.5618
89.2599
88.9578
88.6183
88.1935
87.7376
87.3351
86.9051
86.4621
86.019
85.556
83.3258
79.0485
79.796
79.621
79.9871
80.2403
80.4856
80.7073
80.8968
81.0612
81.2095
81.3485
81.5234
81.473
81.5827
80.502
80.2086
80.1363
80.0435
79.9495
79.8737
79.7878
79.6795
79.5514
79.3818
79.1215
78.9767
78.9658
76.9034
77.0856
76.375
74.8172
73.7179
72.2489
70.6105
70.6017
70.432
70.1657
70.0223
69.9219
69.8392
69.7733
69.7196
69.6737
69.6331
69.5966
69.5637
69.5357
69.5163
69.5116
69.524
69.6219
70.2874
66.8761
62.7663
59.4478
57.0137
55.0201
53.503
52.4252
51.6396
51.0788
50.6901
50.4223
50.2278
50.0617
49.8807
49.6787
49.4481
49.2105
48.9287
48.9418
48.9529
48.9612
48.9686
48.9762
48.9879
48.6652
48.0801
47.4192
46.7124
45.9688
45.2013
44.4258
43.658
42.9109
42.1949
41.5181
40.8848
40.2946
39.7431
39.2245
38.7343
38.2691
37.8242
37.3908
37.391
37.391
37.3911
37.3911
37.3911
36.2689
34.9994
33.5461
31.678
29.434
26.8917
24.1552
21.3221
18.4785
15.7111
13.1197
10.8123
8.87126
7.34147
5.98456
4.7662
4.76627
4.76631
4.76631
4.76625
4.76613
4.76591
4.6044
4.44122
4.27389
4.1051
3.9379
3.77485
3.61761
3.46682
3.32212
3.18235
3.04585
2.91097
2.7765
2.64188
2.50719
2.37303
2.23959
2.11226
2.11261
2.11317
2.11375
2.11416
2.00402
1.88583
1.76522
1.64316
1.52121
1.40079
1.28294
1.16817
1.05646
0.947414
0.840339
0.734413
0.628797
0.522791
0.416005
0.30846
0.200554
0.0929794
-0.0223507
-0.0229546
-0.0223324
-0.0208874
-0.0189342
-0.016693
-0.0143369
-0.0120003
-0.0097768
-0.00772584
-0.00588133
-0.00425833
-0.00285842
-0.00167384
-0.000690091
0.000112349
0.000747203
0.00121036
0.00160903
0.00232737
0.00222453
215.102
215.101
215.101
215.1
215.1
215.099
215.099
215.099
215.099
215.099
215.099
215.099
215.099
215.1
215.101
215.102
215.103
215.104
215.106
215.108
215.111
215.113
215.116
215.119
215.122
215.124
215.127
215.044
214.951
214.853
214.752
214.65
214.55
214.452
214.354
214.257
214.159
214.06
213.957
213.849
213.738
213.621
213.502
213.381
213.263
213.152
213.051
212.959
212.958
212.958
212.959
212.903
212.788
212.658
212.521
212.384
212.247
212.112
211.977
211.841
211.7
211.551
211.392
211.222
211.042
210.855
210.664
210.474
210.289
210.107
210.107
210.107
210.107
210.107
210.107
209.013
207.721
206.245
204.562
202.599
200.364
197.907
195.3
192.623
189.951
187.36
184.929
182.729
180.807
179.171
177.748
176.513
175.477
175.477
175.477
175.477
175.477
175.007
174.5
173.961
173.397
172.804
172.181
171.516
170.805
170.05
169.255
168.429
167.578
166.712
165.847
165.001
164.189
163.464
163.085
163.097
163.108
163.118
163.127
163.137
163.151
163.162
162.997
162.879
162.786
162.737
162.797
162.891
162.983
163.04
163.01
162.826
162.423
161.504
160.01
158.119
154.543
152.04
147.078
146.839
146.693
146.631
146.566
146.5
146.443
146.393
146.348
146.306
146.266
146.226
146.185
146.139
146.087
146.041
145.996
145.845
144.518
141.907
139.589
141.37
141.574
143.13
142.194
141.037
139.089
137.273
135.987
135.859
135.794
135.703
135.598
135.507
135.424
135.336
135.247
135.169
135.115
134.677
133.536
134.007
134.059
134.158
134.259
134.375
134.541
134.793
135.112
135.296
136.174
132.503
131.122
130.766
130.398
130.027
129.656
129.264
128.82
128.471
127.966
127.34
127.03
126.73
126.406
126.08
125.77
125.448
124.84
124.404
124.219
124.031
123.872
123.733
123.609
123.499
123.405
123.326
123.258
123.2
123.15
123.107
123.071
123.038
123.009
122.981
122.956
122.932
122.911
122.899
122.91
122.942
122.77
121.419
120.333
118.922
117.402
115.866
114.38
113.011
111.808
110.786
109.93
109.213
108.603
108.062
107.552
107.035
106.473
105.823
105.042
104.088
102.924
101.533
99.932
98.1757
96.22
93.7194
92.2373
92.8519
92.9278
92.9377
92.9374
92.9243
92.9041
92.8806
92.8553
92.8285
92.7998
92.7683
92.7332
92.6933
92.6473
92.5938
92.5311
92.4572
92.3692
92.2608
92.1258
91.9744
91.8029
91.6233
91.2393
90.6507
90.4165
90.2349
89.8657
89.5627
89.2781
89.0181
88.7429
88.0564
87.4781
87.0716
86.4739
85.949
85.4688
84.9666
84.2918
81.418
79.587
78.0977
79.5283
79.8838
80.2972
80.6382
80.8988
81.117
81.3193
81.4861
82.0651
81.6533
80.9517
80.3662
80.2895
80.2197
80.1405
80.0602
79.9844
79.9003
79.803
79.718
79.6496
79.5111
78.3263
76.6408
74.2199
73.5352
74.9265
74.8798
74.9021
76.1917
74.1413
71.2383
70.0119
69.8947
69.8614
69.8211
69.7733
69.7316
69.6943
69.6583
69.6223
69.585
69.5456
69.5037
69.4598
69.4194
69.4129
69.4497
69.1673
64.7495
61.5434
57.5895
55.4893
53.3986
51.9561
51.1561
50.5833
50.2232
50.0317
49.949
49.9223
49.8994
49.7879
49.6294
49.3834
49.1881
48.9237
48.9359
48.95
48.9611
48.9712
48.9829
49.0014
49.0376
48.3141
47.5949
46.8489
46.0583
45.2369
44.4071
43.5915
42.8041
42.0572
41.3617
40.7231
40.139
39.6002
39.0956
38.6192
38.1708
37.7569
37.3908
37.3909
37.391
37.3911
37.3912
36.4362
35.2925
33.9737
32.4535
30.6632
28.608
26.332
23.9019
21.3898
18.8671
16.4059
14.0801
11.9588
10.0899
8.48152
7.06618
5.8213
4.76632
4.76636
4.76635
4.76626
4.76611
4.76587
4.60016
4.43248
4.26024
4.08654
3.9152
3.74958
3.59183
3.44272
3.30159
3.16655
3.03491
2.90399
2.77195
2.63823
2.50364
2.36983
2.23864
2.11246
2.11251
2.11317
2.11385
2.11394
2.00121
1.8824
1.75994
1.63542
1.51108
1.38894
1.2704
1.15607
1.0458
0.938906
0.834362
0.730972
0.627531
0.522988
0.416667
0.308457
0.198894
0.08907
-0.0264195
-0.0261744
-0.0250504
-0.0230688
-0.0206007
-0.0179388
-0.015266
-0.0127051
-0.0103333
-0.00819171
-0.00629723
-0.0046507
-0.00324265
-0.00205704
-0.00107303
-0.000265723
0.000383958
0.000877895
0.00132996
0.00213181
0.00215114
215.102
215.101
215.101
215.1
215.1
215.099
215.099
215.099
215.099
215.099
215.099
215.099
215.099
215.1
215.101
215.102
215.103
215.104
215.106
215.108
215.111
215.114
215.118
215.121
215.125
215.129
215.134
215.064
214.968
214.864
214.758
214.653
214.552
214.454
214.359
214.265
214.171
214.074
213.974
213.868
213.756
213.637
213.513
213.386
213.262
213.147
213.049
212.961
212.958
212.959
212.959
212.958
212.804
212.665
212.524
212.385
212.25
212.119
211.993
211.866
211.733
211.591
211.434
211.263
211.078
210.882
210.68
210.481
210.29
210.107
210.107
210.107
210.107
210.107
209.266
208.122
206.785
205.275
203.584
201.691
199.604
197.356
194.995
192.581
190.172
187.828
185.607
183.557
181.709
180.071
178.62
177.345
176.264
175.477
175.477
175.477
175.477
175.156
174.668
174.132
173.571
172.987
172.374
171.713
170.991
170.209
169.379
168.513
167.613
166.682
165.748
164.829
163.903
163
163.066
163.091
163.106
163.117
163.127
163.137
163.151
163.168
163.181
162.873
162.771
162.689
162.93
163.191
163.478
163.777
164.031
164.152
164.318
163.588
161.914
161.352
153.973
147.779
147.412
147.157
146.945
146.781
146.646
146.541
146.462
146.401
146.353
146.313
146.281
146.255
146.234
146.217
146.195
146.176
146.135
144.336
141.891
141.756
141.079
141.34
141.484
141.745
141.271
140.5
139.683
139.84
137.303
135.729
135.669
135.584
135.469
135.38
135.306
135.231
135.159
135.094
135.045
134.984
134.403
134.209
133.863
134.095
134.256
134.41
134.65
135.106
135.909
135.543
134.335
131.966
131.542
131.179
130.807
130.426
130.037
129.591
129.03
128.782
128.944
126.727
126.902
126.699
126.403
126.095
125.844
125.843
123.859
124.039
124.011
123.869
123.781
123.663
123.554
123.449
123.364
123.293
123.232
123.18
123.135
123.097
123.063
123.033
123.004
122.974
122.942
122.905
122.865
122.821
122.779
122.731
122.615
122.468
120.462
118.969
117.312
115.607
113.948
112.443
111.19
110.19
109.411
108.81
108.339
107.951
107.602
107.249
106.848
106.348
105.696
104.828
103.678
102.209
100.437
98.5861
96.7646
95.2763
93.2211
92.9873
93.021
93.0205
92.9918
92.9568
92.9223
92.8901
92.8602
92.8317
92.8035
92.7742
92.7425
92.707
92.6667
92.6205
92.567
92.505
92.4315
92.3356
92.2075
92.1141
91.9948
91.9754
92.1279
89.8893
90.3367
90.694
89.7672
89.5581
89.316
89.1642
89.4045
87.0027
87.2044
86.784
85.9837
85.4073
84.8808
84.2632
83.4763
82.993
82.9725
81.1219
80.1446
79.4695
80.1811
80.6493
80.9434
81.1888
81.4646
81.2115
80.903
80.4944
80.5685
80.5274
80.402
80.3151
80.2417
80.1709
80.1005
80.0178
79.9135
79.8351
79.778
78.4
76.0544
76.1
75.2246
74.7561
74.9161
74.8736
74.8189
74.8686
74.1439
73.829
71.4926
69.7763
69.7419
69.7242
69.7033
69.6869
69.6676
69.6428
69.6124
69.575
69.5288
69.4704
69.395
69.2948
69.1763
69.0513
68.8183
68.399
61.0682
53.8776
53.9555
51.129
49.7665
49.66
49.3144
49.199
49.2644
49.4197
49.613
49.8256
49.7422
49.6675
49.268
48.9029
48.9178
48.9362
48.9505
48.9614
48.9717
48.9849
49.0037
49.0103
48.4352
47.7974
47.0301
46.1785
45.281
44.3744
43.4967
42.6568
41.8681
41.1482
40.5068
39.9382
39.4232
38.9383
38.4759
38.0379
37.6435
37.3912
37.391
37.3911
37.3912
36.6662
35.668
34.4913
33.1497
31.6309
29.9135
28.0025
25.9266
23.7308
21.4681
19.1943
16.9654
14.8358
12.8528
11.0478
9.4286
7.97741
6.687
5.58025
4.76649
4.7664
4.76627
4.76609
4.76582
4.60019
4.42799
4.24784
4.06549
3.88673
3.7164
3.55739
3.41061
3.27497
3.14736
3.02325
2.89813
2.769
2.63525
2.49888
2.36401
2.23556
2.11305
2.11231
2.11316
2.11405
2.11335
2.00171
1.88348
1.75735
1.62788
1.49895
1.37357
1.25368
1.1399
1.03175
0.928036
0.827205
0.727554
0.627363
0.525052
0.419439
0.310097
0.197689
0.0841536
-0.0318522
-0.0303751
-0.0284886
-0.0256995
-0.0224795
-0.0192203
-0.0161082
-0.0132434
-0.0106764
-0.00842154
-0.00647171
-0.00480825
-0.00340666
-0.00223974
-0.00127839
-0.00049153
0.000145378
0.000639931
0.00110598
0.00192176
0.00201139
215.102
215.101
215.101
215.1
215.1
215.099
215.099
215.099
215.099
215.099
215.099
215.099
215.099
215.1
215.101
215.102
215.103
215.104
215.106
215.108
215.111
215.114
215.119
215.123
215.129
215.135
215.147
215.099
214.992
214.878
214.763
214.653
214.55
214.454
214.362
214.273
214.184
214.093
213.997
213.894
213.782
213.659
213.527
213.389
213.252
213.127
213.02
212.951
212.956
212.958
212.96
212.957
212.812
212.673
212.526
212.382
212.248
212.124
212.008
211.896
211.777
211.644
211.492
211.319
211.124
210.914
210.695
210.48
210.28
210.107
210.107
210.107
210.107
210.106
208.734
207.424
206.02
204.486
202.807
200.978
199.006
196.916
194.744
192.533
190.328
188.174
186.114
184.183
182.403
180.783
179.315
177.985
176.754
175.478
175.477
175.477
175.476
175.475
174.884
174.328
173.767
173.197
172.617
171.973
171.236
170.415
169.54
168.631
167.681
166.655
165.633
164.664
163.839
163.07
163.069
163.092
163.108
163.117
163.126
163.135
163.147
163.164
163.187
163.209
162.738
162.319
163.041
163.465
163.963
164.557
165.186
165.432
167.108
166.618
162.706
154.086
149.121
148.416
147.959
147.505
147.147
146.893
146.696
146.556
146.463
146.396
146.348
146.313
146.29
146.279
146.283
146.299
146.287
146.243
144.857
143.989
142.784
142.148
141.631
141.427
141.278
141.096
140.645
140.008
139.304
138.654
137.386
136.467
135.594
135.484
135.318
135.239
135.181
135.122
135.06
134.997
134.921
134.815
134.817
134.943
134.167
134.269
134.254
134.221
134.205
134.271
134.654
132.888
133.056
132.715
132.072
131.62
131.227
130.846
130.486
130.131
129.674
127.448
126.899
125.86
126.365
126.532
126.492
126.411
126.437
126.689
125.872
124.692
123.649
123.725
123.673
123.565
123.495
123.387
123.31
123.25
123.198
123.152
123.114
123.081
123.053
123.027
123
122.969
122.931
122.883
122.823
122.75
122.664
122.556
122.419
122.278
122.077
119.179
117.27
115.302
113.363
111.623
110.319
109.374
108.716
108.277
107.993
107.802
107.656
107.511
107.321
107.026
106.564
105.851
104.75
103.189
101.019
98.9677
96.9759
93.7393
93.4787
93.287
93.2015
93.1261
93.0539
92.9911
92.9394
92.8979
92.8638
92.8348
92.8084
92.7825
92.7553
92.7256
92.6922
92.6547
92.6127
92.5665
92.5156
92.4409
92.2978
92.236
92.2928
91.3753
90.6584
89.2071
90.3356
90.9091
89.926
89.6917
89.6501
89.9014
90.6376