/*--------------------------------*- C++ -*----------------------------------*\
  =========                 |
  \\      /  F ield         | OpenFOAM: The Open Source CFD Toolbox
   \\    /   O peration     | Website:  https://openfoam.org
    \\  /    A nd           | Version:  7
     \\/     M anipulation  |
\*---------------------------------------------------------------------------*/
FoamFile
{
    version     2.0;
    format      ascii;
    class       volVectorField;
    location    "0";
    object      U;
}
// * * * * * * * * * * * * * * * * * * * * * * * * * * * * * * * * * * * * * //

dimensions      [0 1 -1 0 0 0 0];

internalField   nonuniform List<vector> 
48000
(
(0.00113947 -3.32623e-06 0)
(0.00114689 -2.17952e-06 0)
(0.00114517 5.38139e-07 0)
(0.00113586 3.14649e-06 0)
(0.00111981 5.48801e-06 0)
(0.00109723 7.62689e-06 0)
(0.00106828 9.67425e-06 0)
(0.00103291 1.17456e-05 0)
(0.000990814 1.39319e-05 0)
(0.000941549 1.6291e-05 0)
(0.000884575 1.88461e-05 0)
(0.000819374 2.1582e-05 0)
(0.000745557 2.4437e-05 0)
(0.00066301 2.72922e-05 0)
(0.000572072 2.99573e-05 0)
(0.000473742 3.21554e-05 0)
(0.000369917 3.35114e-05 0)
(0.000263642 3.35484e-05 0)
(0.000159325 3.17081e-05 0)
(6.28379e-05 2.74127e-05 0)
(-1.86152e-05 2.02023e-05 0)
(-7.71344e-05 9.99305e-06 0)
(-0.000105579 -2.49389e-06 0)
(-0.000100091 -1.51524e-05 0)
(-6.37987e-05 -2.36235e-05 0)
(-1.35413e-05 -2.03956e-05 0)
(4.65205e-15 -2.08872e-15 0)
(1.20307e-14 5.47535e-18 0)
(1.17049e-14 -6.61905e-17 0)
(1.18718e-14 -8.30387e-17 0)
(1.20501e-14 -8.14712e-17 0)
(1.22162e-14 -7.58801e-17 0)
(1.23698e-14 -7.30576e-17 0)
(1.25211e-14 -7.59687e-17 0)
(1.26831e-14 -8.50384e-17 0)
(1.28676e-14 -9.9021e-17 0)
(1.30826e-14 -1.15665e-16 0)
(1.3331e-14 -1.32464e-16 0)
(1.36109e-14 -1.47218e-16 0)
(1.39169e-14 -1.58939e-16 0)
(1.42438e-14 -1.68368e-16 0)
(1.45911e-14 -1.79189e-16 0)
(1.49678e-14 -1.96288e-16 0)
(1.53922e-14 -2.23265e-16 0)
(1.58738e-14 -2.44231e-16 0)
(1.62617e-14 -2.0377e-16 0)
(8.48836e-15 -6.96023e-17 0)
(-8.0336e-07 -1.25939e-09 0)
(1.01092e-07 -1.03467e-07 0)
(1.39797e-07 7.44558e-08 0)
(-7.88452e-07 -3.48874e-08 0)
(9.43222e-15 6.11311e-17 0)
(1.8209e-14 1.25803e-17 0)
(1.82579e-14 2.7143e-17 0)
(1.82192e-14 3.41802e-18 0)
(1.82435e-14 -3.46567e-17 0)
(1.83527e-14 -7.91612e-17 0)
(1.85575e-14 -1.28345e-16 0)
(1.88649e-14 -1.80727e-16 0)
(1.92781e-14 -2.33389e-16 0)
(1.97931e-14 -2.82272e-16 0)
(2.03998e-14 -3.24458e-16 0)
(2.10856e-14 -3.60593e-16 0)
(2.18473e-14 -3.99459e-16 0)
(2.27143e-14 -4.68056e-16 0)
(2.38131e-14 -6.35081e-16 0)
(2.55305e-14 -1.10099e-15 0)
(2.91057e-14 -2.47342e-15 0)
(1.57125e-14 -6.8682e-15 0)
(4.71688e-07 -5.98481e-07 0)
(2.74488e-09 1.42559e-07 0)
(1.00449e-07 4.57007e-08 0)
(4.94771e-08 1.89197e-08 0)
(-2.16576e-08 -1.9983e-08 0)
(-3.94001e-08 7.45201e-09 0)
(-3.78553e-08 -2.84467e-08 0)
(-1.10183e-08 -3.3526e-08 0)
(2.52807e-08 -8.33106e-08 0)
(2.20099e-08 -7.9441e-08 0)
(3.37406e-08 3.05623e-08 0)
(4.27745e-13 2.17939e-13 0)
(7.72622e-13 8.28795e-14 0)
(6.59544e-13 3.01969e-14 0)
(6.28739e-13 6.08895e-16 0)
(6.57019e-13 -2.88889e-14 0)
(7.67113e-13 -8.1205e-14 0)
(4.24162e-13 -2.15167e-13 0)
(-1.31841e-08 3.15474e-08 0)
(1.66182e-09 -8.79074e-08 0)
(-4.95793e-10 -8.26253e-08 0)
(5.2867e-09 3.11661e-09 0)
(-4.27467e-08 3.59446e-08 0)
(-1.14566e-08 -7.23549e-09 0)
(-4.82636e-08 -8.03829e-09 0)
(3.845e-07 3.28375e-08 0)
(2.84629e-14 -8.59859e-18 0)
(5.83144e-14 -1.14737e-15 0)
(6.11247e-14 -1.70116e-15 0)
(6.46969e-14 -1.87075e-15 0)
(6.84599e-14 -1.88966e-15 0)
(7.22136e-14 -1.86148e-15 0)
(7.58904e-14 -1.81349e-15 0)
(7.94449e-14 -1.74007e-15 0)
(8.28101e-14 -1.62468e-15 0)
(8.58868e-14 -1.45186e-15 0)
(8.85525e-14 -1.21372e-15 0)
(9.06783e-14 -9.12002e-16 0)
(9.21488e-14 -5.58469e-16 0)
(9.28854e-14 -1.78129e-16 0)
(9.28821e-14 1.81535e-16 0)
(9.22664e-14 4.34224e-16 0)
(9.13982e-14 4.34e-16 0)
(9.0981e-14 -1.67678e-17 0)
(9.17641e-14 -8.81071e-16 0)
(4.67278e-14 -2.39179e-16 0)
(4.49704e-06 -1.94298e-06 0)
(-1.66763e-05 1.64818e-05 0)
(-5.23367e-05 8.65754e-06 0)
(-5.52847e-05 -9.84017e-06 0)
(-5.46146e-15 -8.35445e-15 0)
(9.5592e-15 -3.23826e-15 0)
(1.37077e-14 -1.25505e-15 0)
(1.60757e-14 -1.11295e-15 0)
(1.84744e-14 -1.28576e-15 0)
(2.14805e-14 -1.72034e-15 0)
(2.56666e-14 -2.46578e-15 0)
(3.16914e-14 -3.55904e-15 0)
(4.02351e-14 -4.98466e-15 0)
(5.19047e-14 -6.68494e-15 0)
(6.7151e-14 -8.56133e-15 0)
(8.61711e-14 -1.04588e-14 0)
(1.08774e-13 -1.2144e-14 0)
(1.34209e-13 -1.32911e-14 0)
(1.61002e-13 -1.35022e-14 0)
(1.86898e-13 -1.23935e-14 0)
(2.08891e-13 -9.59939e-15 0)
(2.23228e-13 -4.73831e-15 0)
(2.25366e-13 2.60127e-15 0)
(2.09073e-13 1.36914e-14 0)
(1.63946e-13 3.14354e-14 0)
(7.70862e-14 2.79351e-14 0)
(5.2797e-13 -5.07164e-13 0)
(0.00292651 -0.000998926 0)
(0.00624298 -0.00119524 0)
(0.00931951 -0.00103919 0)
(0.0118485 -0.000823112 0)
(0.0139023 -0.00068274 0)
(0.0157619 -0.000670283 0)
(0.0177727 -0.000798436 0)
(0.0202789 -0.00106365 0)
(0.0235968 -0.00145584 0)
(0.0279993 -0.00196193 0)
(0.0337069 -0.00256906 0)
(0.040879 -0.0032649 0)
(0.0495953 -0.00404087 0)
(0.0599504 -0.00496258 0)
(0.0723949 -0.00620407 0)
(0.0875867 -0.00755767 0)
(0.104964 -0.00789488 0)
(0.118804 -0.00425335 0)
(0.119175 0.00373961 0)
(0.106888 0.00711748 0)
(0.0931761 0.00539028 0)
(0.0840721 0.0036329 0)
(0.0764805 0.00361897 0)
(0.0677412 0.00399696 0)
(0.0581873 0.00404661 0)
(0.0484424 0.00405245 0)
(0.038522 0.00405538 0)
(0.0284067 0.00409259 0)
(0.0181902 0.00404849 0)
(0.00851061 0.00326004 0)
(1.37627e-12 1.48639e-12 0)
(-3.37032e-14 8.35365e-15 0)
(3.91788e-14 -1.61719e-14 0)
(5.31284e-14 2.2223e-15 0)
(4.68295e-14 4.07658e-15 0)
(3.9047e-14 3.70592e-15 0)
(3.21038e-14 3.23736e-15 0)
(2.63609e-14 2.50553e-15 0)
(2.23027e-14 1.55267e-15 0)
(2.03098e-14 4.40156e-16 0)
(2.06924e-14 -8.22766e-16 0)
(2.37913e-14 -2.2761e-15 0)
(3.00337e-14 -3.96624e-15 0)
(3.98756e-14 -5.87573e-15 0)
(5.3603e-14 -7.85162e-15 0)
(7.1045e-14 -9.5904e-15 0)
(9.13985e-14 -1.07631e-14 0)
(1.13517e-13 -1.13557e-14 0)
(1.36906e-13 -1.20329e-14 0)
(1.56461e-13 -7.52247e-15 0)
(1.27149e-13 3.68344e-14 0)
(-4.52389e-14 -8.60128e-15 0)
(2.96757e-12 -3.16391e-12 0)
(0.0181699 -0.00649683 0)
(0.0353147 -0.00668517 0)
(0.0498171 -0.00500094 0)
(0.0598909 -0.00310835 0)
(0.0656777 -0.00154321 0)
(0.068349 -0.000579559 0)
(0.0692902 -0.000123284 0)
(0.0694468 5.81618e-05 0)
(0.0692276 0.000164598 0)
(0.0686189 0.000354137 0)
(0.0672511 0.000748161 0)
(0.0646041 0.00131895 0)
(0.0605757 0.00177862 0)
(0.0556673 0.00197338 0)
(0.0505085 0.00195541 0)
(0.0455145 0.00181966 0)
(0.0408818 0.00164127 0)
(0.0366635 0.00146424 0)
(0.032841 0.00130539 0)
(0.0293789 0.00116423 0)
(0.0262486 0.00103624 0)
(0.0234295 0.000918615 0)
(0.020903 0.000810792 0)
(0.0186466 0.00071467 0)
(0.0166278 0.000635048 0)
(0.0147969 0.000579635 0)
(0.0130806 0.000557894 0)
(0.0113811 0.000577898 0)
(0.00958566 0.000640155 0)
(0.00759372 0.000726972 0)
(0.00537743 0.00078789 0)
(0.00307611 0.000730919 0)
(0.00106029 0.000439952 0)
(-0.000144383 -0.000109155 0)
(3.67602e-14 -1.64067e-14 0)
(1.14143e-13 -1.33441e-14 0)
(1.32099e-13 -8.29493e-15 0)
(1.44967e-13 -4.57348e-15 0)
(1.51424e-13 -1.88281e-15 0)
(1.53224e-13 8.28677e-17 0)
(1.51579e-13 1.56157e-15 0)
(1.47351e-13 2.66661e-15 0)
(1.41269e-13 3.4151e-15 0)
(1.34067e-13 3.78696e-15 0)
(1.26507e-13 3.77272e-15 0)
(1.19342e-13 3.393e-15 0)
(1.13251e-13 2.69723e-15 0)
(1.088e-13 1.7542e-15 0)
(1.06403e-13 6.4308e-16 0)
(1.06312e-13 -5.51882e-16 0)
(1.08606e-13 -1.74233e-15 0)
(1.13182e-13 -2.83412e-15 0)
(1.19742e-13 -3.72576e-15 0)
(1.27777e-13 -4.30955e-15 0)
(1.36564e-13 -4.47723e-15 0)
(1.45171e-13 -4.12973e-15 0)
(1.52487e-13 -3.18588e-15 0)
(1.57254e-13 -1.58172e-15 0)
(1.58098e-13 7.37681e-16 0)
(1.53558e-13 3.80231e-15 0)
(1.42232e-13 7.52376e-15 0)
(1.22999e-13 1.17093e-14 0)
(9.43633e-14 1.7708e-14 0)
(3.40922e-14 -4.87062e-15 0)
(-3.06309e-05 -0.000133713 0)
(0.0016479 -0.000634736 0)
(0.00387308 -0.000793638 0)
(0.00610707 -0.000753744 0)
(0.00810698 -0.000644974 0)
(0.00982423 -0.00054223 0)
(0.0113312 -0.00047846 0)
(0.0127457 -0.000462331 0)
(0.0141893 -0.000491171 0)
(0.0157696 -0.000558332 0)
(0.017576 -0.000656845 0)
(0.0196797 -0.000780758 0)
(0.0221364 -0.000925005 0)
(0.0249864 -0.00108439 0)
(0.0282525 -0.00125224 0)
(0.0319346 -0.00141928 0)
(0.0360028 -0.00157341 0)
(0.0403946 -0.00169997 0)
(0.0450064 -0.00177432 0)
(0.0496469 -0.00174246 0)
(0.0539536 -0.00152557 0)
(0.0573851 -0.00108521 0)
(0.0595387 -0.000576027 0)
(0.0606491 -0.000301715 0)
(0.0613069 -0.000222274 0)
(0.0617573 -0.000146596 0)
(0.0619145 -1.07352e-05 0)
(0.0615311 0.000294093 0)
(0.0599951 0.000984089 0)
(0.0560674 0.00232726 0)
(0.0480276 0.00437088 0)
(0.0349384 0.00641406 0)
(0.0182183 0.0064797 0)
(3.10192e-12 3.22511e-12 0)
(-6.28068e-15 -3.24393e-15 0)
(1.80745e-13 -3.49073e-14 0)
(2.03946e-13 1.17066e-14 0)
(1.74569e-13 1.76698e-14 0)
(1.37767e-13 1.91328e-14 0)
(1.01365e-13 1.72692e-14 0)
(6.99371e-14 1.41584e-14 0)
(4.51372e-14 1.06415e-14 0)
(2.7051e-14 7.44469e-15 0)
(1.48028e-14 4.80355e-15 0)
(7.29548e-15 2.70376e-15 0)
(3.56167e-15 1.03006e-15 0)
(2.90082e-15 -3.69207e-16 0)
(4.90594e-15 -1.63591e-15 0)
(9.39846e-15 -2.85661e-15 0)
(1.62565e-14 -4.00144e-15 0)
(2.51261e-14 -4.86812e-15 0)
(3.53115e-14 -5.31733e-15 0)
(4.54809e-14 -4.85209e-15 0)
(5.27127e-14 -2.37971e-15 0)
(3.96584e-14 1.54341e-14 0)
(-2.85421e-14 -6.78068e-15 0)
(1.25455e-12 -1.36261e-12 0)
(0.00784143 -0.00298875 0)
(0.0166431 -0.00368386 0)
(0.025937 -0.00371511 0)
(0.0351338 -0.00368704 0)
(0.0441982 -0.00373317 0)
(0.0532765 -0.00387418 0)
(0.0626174 -0.00416267 0)
(0.0723114 -0.00452203 0)
(0.0828167 -0.00532714 0)
(0.0957085 -0.00658404 0)
(0.109027 -0.00520701 0)
(0.115591 -0.000389877 0)
(0.10999 0.00508318 0)
(0.0958998 0.00759071 0)
(0.0798276 0.00691743 0)
(0.066075 0.0056242 0)
(0.0548046 0.00449587 0)
(0.0453837 0.00368126 0)
(0.0374035 0.00298962 0)
(0.0308027 0.00236368 0)
(0.0255141 0.00182027 0)
(0.0213826 0.00137326 0)
(0.0181964 0.00103434 0)
(0.015698 0.000814579 0)
(0.013594 0.00072094 0)
(0.0115748 0.000751372 0)
(0.00935168 0.000882416 0)
(0.00673055 0.00104106 0)
(0.00370247 0.00107469 0)
(0.000625818 0.000806263 0)
(1.1325e-13 8.50497e-14 0)
(1.4965e-13 -2.41243e-14 0)
(2.11475e-13 -2.1738e-14 0)
(2.44058e-13 -1.08452e-14 0)
(2.55646e-13 -7.42142e-16 0)
(2.49629e-13 6.75891e-15 0)
(2.31485e-13 1.13845e-14 0)
(2.06399e-13 1.37021e-14 0)
(1.78413e-13 1.42838e-14 0)
(1.50489e-13 1.36399e-14 0)
(1.24595e-13 1.22541e-14 0)
(1.0185e-13 1.04911e-14 0)
(8.27579e-14 8.60116e-15 0)
(6.73958e-14 6.76111e-15 0)
(5.55315e-14 5.10338e-15 0)
(4.67007e-14 3.72728e-15 0)
(4.02827e-14 2.68901e-15 0)
(3.56118e-14 1.97794e-15 0)
(3.21093e-14 1.51893e-15 0)
(2.94309e-14 1.15367e-15 0)
(2.80535e-14 6.20355e-16 0)
(1.23636e-14 1.76456e-15 0)
(-1.47514e-05 1.77898e-05 0)
(-5.53362e-05 1.01396e-05 0)
(-5.46814e-05 -1.01039e-05 0)
(-1.48741e-05 -1.7393e-05 0)
(3.6185e-14 -1.72852e-15 0)
(7.54525e-14 -7.60364e-16 0)
(7.71666e-14 -1.30575e-15 0)
(7.98616e-14 -1.39802e-15 0)
(8.24543e-14 -1.20124e-15 0)
(8.44867e-14 -8.35278e-16 0)
(8.57014e-14 -3.81635e-16 0)
(8.59832e-14 9.87693e-17 0)
(8.53262e-14 5.57771e-16 0)
(8.38095e-14 9.58687e-16 0)
(8.15752e-14 1.27542e-15 0)
(7.88071e-14 1.49237e-15 0)
(7.57092e-14 1.60506e-15 0)
(7.24847e-14 1.61862e-15 0)
(6.93261e-14 1.53971e-15 0)
(6.64332e-14 1.35472e-15 0)
(6.41104e-14 9.72049e-16 0)
(6.31106e-14 3.02415e-17 0)
(6.58521e-14 -2.77293e-15 0)
(3.43452e-14 -1.22978e-14 0)
(-1.87633e-07 1.91196e-07 0)
(1.64123e-09 -5.03558e-08 0)
(-5.60118e-09 6.59849e-09 0)
(8.20646e-09 -1.33779e-08 0)
(4.55857e-08 3.08975e-08 0)
(2.80991e-08 4.43212e-08 0)
(-2.13865e-08 1.18246e-07 0)
(-2.1267e-08 1.0077e-07 0)
(-1.85014e-08 -2.95208e-08 0)
(3.98025e-13 2.01508e-13 0)
(7.20264e-13 7.5779e-14 0)
(6.17842e-13 2.66434e-14 0)
(5.92315e-13 -1.11689e-15 0)
(6.22472e-13 -2.9041e-14 0)
(7.30358e-13 -7.88447e-14 0)
(4.04593e-13 -2.06588e-13 0)
(6.01778e-08 -6.8645e-08 0)
(-1.64326e-08 -7.74053e-08 0)
(9.45037e-09 -1.35154e-07 0)
(3.59728e-08 -2.97229e-08 0)
(2.38025e-08 7.40797e-09 0)
(-5.45054e-08 6.89448e-09 0)
(-5.0065e-08 5.91277e-09 0)
(-3.57579e-09 -1.49491e-08 0)
(1.50611e-07 -2.93744e-08 0)
(9.5475e-08 -1.5244e-07 0)
(5.52649e-07 6.60649e-07 0)
(1.43893e-14 6.28915e-15 0)
(2.67244e-14 2.25165e-15 0)
(2.34769e-14 9.86485e-16 0)
(2.19477e-14 5.55996e-16 0)
(2.10017e-14 3.97182e-16 0)
(2.02765e-14 3.31492e-16 0)
(1.96517e-14 2.95254e-16 0)
(1.90938e-14 2.64372e-16 0)
(1.8601e-14 2.30619e-16 0)
(1.81798e-14 1.93441e-16 0)
(1.78346e-14 1.55601e-16 0)
(1.7563e-14 1.20484e-16 0)
(1.73587e-14 9.08238e-17 0)
(1.72043e-14 6.6467e-17 0)
(1.70897e-14 5.37158e-17 0)
(1.69861e-14 4.38575e-17 0)
(1.66491e-14 6.56878e-17 0)
(9.02388e-15 -1.31487e-16 0)
(-2.15884e-06 4.0037e-07 0)
(-1.11071e-06 -2.54437e-08 0)
(-8.73233e-07 3.06893e-07 0)
(-2.2077e-06 -2.00008e-06 0)
(1.09354e-14 4.65023e-15 0)
(1.93738e-14 1.57424e-15 0)
(1.71604e-14 6.61952e-16 0)
(1.60932e-14 3.46499e-16 0)
(1.54906e-14 2.27189e-16 0)
(1.50742e-14 1.77659e-16 0)
(1.47408e-14 1.52827e-16 0)
(1.44537e-14 1.3494e-16 0)
(1.42037e-14 1.17084e-16 0)
(1.39915e-14 9.73725e-17 0)
(1.38204e-14 7.64516e-17 0)
(1.36908e-14 5.61782e-17 0)
(1.3598e-14 3.88073e-17 0)
(1.35302e-14 2.57538e-17 0)
(1.34763e-14 1.6982e-17 0)
(1.34313e-14 6.58164e-18 0)
(1.34194e-14 -1.51644e-17 0)
(1.38455e-14 -9.20746e-17 0)
(5.86471e-15 1.75673e-15 0)
(-1.04274e-05 1.73968e-05 0)
(-6.43835e-05 2.49689e-05 0)
(-0.000116371 2.14731e-05 0)
(-0.000148101 1.22586e-05 0)
(-0.000151402 1.10789e-06 0)
(-0.000124955 -9.54197e-06 0)
(-7.21235e-05 -1.83258e-05 0)
(1.25414e-06 -2.47021e-05 0)
(8.86121e-05 -2.86629e-05 0)
(0.000183746 -3.05039e-05 0)
(0.000281411 -3.06671e-05 0)
(0.000377602 -2.96455e-05 0)
(0.000469636 -2.79387e-05 0)
(0.000556166 -2.60547e-05 0)
(0.000637217 -2.45521e-05 0)
(0.000714112 -2.41117e-05 0)
(0.000789291 -2.57558e-05 0)
(0.000869852 -3.15976e-05 0)
(0.000977992 -4.48366e-05 0)
(0.00110942 -6.25384e-05 0)
(0.00338005 -6.61632e-06 0)
(0.00338225 3.43927e-07 0)
(0.0033661 1.2813e-05 0)
(0.0033337 2.59046e-05 0)
(0.00328565 3.86862e-05 0)
(0.00322154 5.11615e-05 0)
(0.003141 6.3646e-05 0)
(0.0030435 7.65351e-05 0)
(0.00292812 9.01621e-05 0)
(0.00279368 0.000104733 0)
(0.00263891 0.00012029 0)
(0.00246266 0.000136673 0)
(0.00226415 0.000153478 0)
(0.00204331 0.000169995 0)
(0.00180121 0.000185153 0)
(0.00154046 0.000197461 0)
(0.00126577 0.000204981 0)
(0.000984441 0.000205354 0)
(0.000706701 0.000195956 0)
(0.000445821 0.000174253 0)
(0.000217598 0.00013848 0)
(3.88718e-05 8.87986e-05 0)
(-7.54823e-05 2.90143e-05 0)
(-0.00011709 -3.12109e-05 0)
(-8.99405e-05 -7.39613e-05 0)
(-2.064e-05 -7.24873e-05 0)
(3.7334e-15 -7.51608e-15 0)
(1.19471e-14 -1.54665e-16 0)
(1.16164e-14 -2.51817e-16 0)
(1.18565e-14 -2.66537e-16 0)
(1.20572e-14 -2.47939e-16 0)
(1.22246e-14 -2.24642e-16 0)
(1.23697e-14 -2.1336e-16 0)
(1.25091e-14 -2.21708e-16 0)
(1.266e-14 -2.5021e-16 0)
(1.2837e-14 -2.94383e-16 0)
(1.30491e-14 -3.46867e-16 0)
(1.32995e-14 -3.99379e-16 0)
(1.35845e-14 -4.44755e-16 0)
(1.38958e-14 -4.79037e-16 0)
(1.42235e-14 -5.04249e-16 0)
(1.45632e-14 -5.30814e-16 0)
(1.49237e-14 -5.78799e-16 0)
(1.53443e-14 -6.68414e-16 0)
(1.58933e-14 -7.98574e-16 0)
(1.65108e-14 -8.07208e-16 0)
(8.86402e-15 -2.2585e-16 0)
(-8.40527e-07 -4.30559e-08 0)
(1.08367e-06 -2.67515e-07 0)
(1.35748e-06 3.48223e-08 0)
(-1.09213e-06 6.05221e-08 0)
(9.7631e-15 1.64767e-16 0)
(1.82437e-14 1.17693e-16 0)
(1.82487e-14 1.16924e-16 0)
(1.81574e-14 2.2733e-17 0)
(1.8161e-14 -9.8598e-17 0)
(1.82591e-14 -2.33399e-16 0)
(1.84559e-14 -3.8207e-16 0)
(1.87599e-14 -5.42094e-16 0)
(1.91765e-14 -7.03904e-16 0)
(1.9702e-14 -8.53688e-16 0)
(2.03215e-14 -9.79446e-16 0)
(2.10106e-14 -1.07879e-15 0)
(2.17398e-14 -1.16913e-15 0)
(2.24787e-14 -1.30512e-15 0)
(2.31801e-14 -1.61346e-15 0)
(2.36922e-14 -2.39068e-15 0)
(2.32577e-14 -4.35443e-15 0)
(1.82695e-14 -9.42924e-15 0)
(6.63638e-15 1.38456e-16 0)
(2.51367e-07 -1.70706e-07 0)
(-2.04127e-07 8.80215e-08 0)
(-5.9966e-08 3.30679e-08 0)
(-4.30725e-08 1.75263e-08 0)
(-3.81152e-08 -9.66166e-08 0)
(2.40186e-09 -1.12366e-07 0)
(-6.56422e-09 -1.46259e-07 0)
(8.95069e-09 1.93859e-07 0)
(1.27973e-08 2.49899e-07 0)
(2.17933e-13 1.64665e-13 0)
(5.10631e-13 3.61145e-13 0)
(5.84874e-13 1.66258e-13 0)
(5.77274e-13 6.74961e-14 0)
(5.69653e-13 1.73677e-15 0)
(5.75205e-13 -6.38488e-14 0)
(5.8084e-13 -1.61972e-13 0)
(5.05364e-13 -3.55287e-13 0)
(2.1517e-13 -1.61515e-13 0)
(5.43177e-08 3.06493e-07 0)
(1.84413e-08 3.46283e-07 0)
(1.30911e-07 9.4461e-09 0)
(4.48469e-08 6.65538e-08 0)
(-8.96264e-08 3.42286e-08 0)
(-4.18569e-07 -4.01011e-08 0)
(7.07335e-07 1.13341e-07 0)
(2.71773e-14 -2.00685e-17 0)
(5.661e-14 -4.07443e-15 0)
(6.04013e-14 -5.48587e-15 0)
(6.45084e-14 -5.76124e-15 0)
(6.84691e-14 -5.715e-15 0)
(7.22898e-14 -5.60366e-15 0)
(7.60118e-14 -5.46561e-15 0)
(7.96337e-14 -5.26208e-15 0)
(8.30983e-14 -4.93142e-15 0)
(8.62978e-14 -4.42087e-15 0)
(8.90923e-14 -3.70475e-15 0)
(9.13335e-14 -2.78782e-15 0)
(9.28827e-14 -1.70222e-15 0)
(9.36255e-14 -5.1371e-16 0)
(9.34945e-14 6.51583e-16 0)
(9.25188e-14 1.55558e-15 0)
(9.09472e-14 1.75255e-15 0)
(8.96659e-14 3.63234e-16 0)
(9.17399e-14 -4.46405e-15 0)
(4.80462e-14 -1.66679e-14 0)
(9.06095e-06 1.5723e-06 0)
(-3.70742e-05 7.70963e-05 0)
(-0.000110743 3.85366e-05 0)
(-0.000112662 -4.38727e-05 0)
(-3.03361e-05 -7.21025e-05 0)
(5.20244e-15 -1.05816e-14 0)
(1.5833e-14 -2.69782e-15 0)
(1.6045e-14 -3.02394e-15 0)
(1.7867e-14 -3.59549e-15 0)
(2.03005e-14 -4.85016e-15 0)
(2.38279e-14 -7.04953e-15 0)
(2.91725e-14 -1.03447e-14 0)
(3.71092e-14 -1.46793e-14 0)
(4.8328e-14 -1.98787e-14 0)
(6.33772e-14 -2.56629e-14 0)
(8.25885e-14 -3.15886e-14 0)
(1.05942e-13 -3.69701e-14 0)
(1.32851e-13 -4.08092e-14 0)
(1.619e-13 -4.18264e-14 0)
(1.90801e-13 -3.88658e-14 0)
(2.16546e-13 -3.08652e-14 0)
(2.35429e-13 -1.66934e-14 0)
(2.43795e-13 4.05321e-15 0)
(2.37907e-13 3.44206e-14 0)
(1.7819e-13 6.00098e-14 0)
(2.72079e-13 -3.96019e-13 0)
(0.00217741 -0.00400924 0)
(0.011316 -0.0062088 0)
(0.0197417 -0.00631666 0)
(0.0267495 -0.0054085 0)
(0.0324393 -0.00440632 0)
(0.0371787 -0.00379565 0)
(0.041569 -0.00377291 0)
(0.046299 -0.0043853 0)
(0.0520421 -0.00560639 0)
(0.0593936 -0.00736834 0)
(0.0688204 -0.00957493 0)
(0.0806268 -0.0121153 0)
(0.0949261 -0.0148675 0)
(0.111537 -0.0177116 0)
(0.130046 -0.0208433 0)
(0.150612 -0.0250347 0)
(0.173905 -0.0295579 0)
(0.200103 -0.0312448 0)
(0.220152 -0.0192103 0)
(0.219946 0.0169699 0)
(0.203212 0.0275642 0)
(0.183354 0.0201825 0)
(0.171001 0.0141151 0)
(0.159423 0.0151582 0)
(0.144456 0.0172737 0)
(0.126996 0.0178686 0)
(0.108559 0.0183693 0)
(0.0891254 0.0187408 0)
(0.0689372 0.0191122 0)
(0.0481274 0.0192039 0)
(0.0266761 0.0175034 0)
(0.00538124 0.0114064 0)
(5.07675e-13 1.21772e-12 0)
(3.30474e-14 4.5827e-14 0)
(7.33769e-14 2.32068e-14 0)
(4.83132e-14 1.44547e-14 0)
(3.82078e-14 1.12157e-14 0)
(3.09034e-14 9.97534e-15 0)
(2.46762e-14 7.73764e-15 0)
(2.02373e-14 4.81765e-15 0)
(1.79344e-14 1.47088e-15 0)
(1.79762e-14 -2.27789e-15 0)
(2.06478e-14 -6.59147e-15 0)
(2.6434e-14 -1.16794e-14 0)
(3.59902e-14 -1.75608e-14 0)
(4.98883e-14 -2.3792e-14 0)
(6.81335e-14 -2.93372e-14 0)
(8.96332e-14 -3.28696e-14 0)
(1.12248e-13 -3.39825e-14 0)
(1.40739e-13 -4.12862e-14 0)
(2.05329e-13 -6.24139e-14 0)
(1.26071e-13 -1.14253e-13 0)
(1.19317e-12 -2.59618e-12 0)
(0.0123316 -0.024353 0)
(0.0560777 -0.0336665 0)
(0.0936861 -0.0307686 0)
(0.122472 -0.0230876 0)
(0.142488 -0.0148784 0)
(0.154437 -0.00797052 0)
(0.16035 -0.0035199 0)
(0.162811 -0.00118313 0)
(0.163539 -3.40003e-05 0)
(0.163276 0.000749954 0)
(0.162041 0.00183587 0)
(0.15917 0.00373944 0)
(0.153575 0.00636688 0)
(0.145038 0.00851158 0)
(0.134627 0.00952338 0)
(0.123606 0.0096038 0)
(0.112769 0.00913578 0)
(0.10251 0.00843516 0)
(0.0929636 0.00769587 0)
(0.0841332 0.00700001 0)
(0.0759854 0.00635518 0)
(0.0684979 0.00575034 0)
(0.0616546 0.00518005 0)
(0.0554348 0.00464756 0)
(0.049804 0.00416642 0)
(0.0447025 0.00376253 0)
(0.0400308 0.00347378 0)
(0.0356387 0.00334418 0)
(0.0313241 0.00340977 0)
(0.02685 0.00367363 0)
(0.021994 0.00406744 0)
(0.016643 0.00440185 0)
(0.0109164 0.00432911 0)
(0.00519466 0.00338216 0)
(0.000418466 0.00127333 0)
(8.31487e-14 1.13373e-13 0)
(1.11117e-13 -3.87991e-14 0)
(1.4087e-13 -2.3557e-14 0)
(1.51379e-13 -1.26896e-14 0)
(1.5608e-13 -4.92345e-15 0)
(1.56668e-13 7.35577e-16 0)
(1.54163e-13 5.05839e-15 0)
(1.49204e-13 8.35639e-15 0)
(1.4239e-13 1.06219e-14 0)
(1.34425e-13 1.1747e-14 0)
(1.26113e-13 1.16836e-14 0)
(1.18266e-13 1.04951e-14 0)
(1.11613e-13 8.33893e-15 0)
(1.06746e-13 5.43069e-15 0)
(1.04097e-13 2.01308e-15 0)
(1.03926e-13 -1.66016e-15 0)
(1.06324e-13 -5.32563e-15 0)
(1.11199e-13 -8.70251e-15 0)
(1.18267e-13 -1.14852e-14 0)
(1.27026e-13 -1.33448e-14 0)
(1.36744e-13 -1.39469e-14 0)
(1.46463e-13 -1.29855e-14 0)
(1.55035e-13 -1.02179e-14 0)
(1.61178e-13 -5.46041e-15 0)
(1.63482e-13 1.46782e-15 0)
(1.60344e-13 1.07501e-14 0)
(1.50139e-13 2.21072e-14 0)
(1.33184e-13 3.33146e-14 0)
(9.14262e-14 3.42238e-14 0)
(1.54199e-13 -2.5064e-13 0)
(0.00129583 -0.0024596 0)
(0.00709183 -0.00398038 0)
(0.0129076 -0.0043824 0)
(0.0182599 -0.00409822 0)
(0.0230192 -0.00358803 0)
(0.0272002 -0.00313194 0)
(0.030977 -0.00285881 0)
(0.0345966 -0.00280712 0)
(0.0383118 -0.00296827 0)
(0.0423487 -0.00331353 0)
(0.0468943 -0.00380928 0)
(0.0520949 -0.00442363 0)
(0.0580581 -0.00512658 0)
(0.0648525 -0.00588623 0)
(0.0725017 -0.00666341 0)
(0.0809727 -0.00740737 0)
(0.0901623 -0.00805611 0)
(0.099896 -0.00853949 0)
(0.109935 -0.00875192 0)
(0.119902 -0.00847238 0)
(0.129115 -0.00738686 0)
(0.136484 -0.0053524 0)
(0.14111 -0.00301352 0)
(0.143501 -0.00165329 0)
(0.144938 -0.0010895 0)
(0.14581 -0.000508815 0)
(0.14585 0.000357599 0)
(0.144637 0.00196731 0)
(0.141155 0.0051853 0)
(0.133271 0.0110662 0)
(0.11783 0.0198369 0)
(0.0924758 0.0290641 0)
(0.0565459 0.0335922 0)
(0.012654 0.0253726 0)
(1.26673e-12 2.70191e-12 0)
(1.95696e-13 1.39775e-13 0)
(2.56523e-13 7.57707e-14 0)
(1.81995e-13 5.75095e-14 0)
(1.37366e-13 6.07249e-14 0)
(9.63904e-14 5.30549e-14 0)
(6.33094e-14 4.28814e-14 0)
(3.84235e-14 3.16042e-14 0)
(2.12131e-14 2.17784e-14 0)
(1.00619e-14 1.38693e-14 0)
(3.52199e-15 7.68519e-15 0)
(4.88702e-16 2.81573e-15 0)
(2.34852e-16 -1.24018e-15 0)
(2.41853e-15 -4.95373e-15 0)
(7.03294e-15 -8.64572e-15 0)
(1.4245e-14 -1.22825e-14 0)
(2.38102e-14 -1.50218e-14 0)
(3.53275e-14 -1.68664e-14 0)
(4.84186e-14 -1.65634e-14 0)
(7.29989e-14 -2.24805e-14 0)
(3.52574e-14 -4.00875e-14 0)
(4.69453e-13 -1.1066e-12 0)
(0.0049561 -0.010382 0)
(0.0244174 -0.0159503 0)
(0.0439625 -0.0174747 0)
(0.062898 -0.0173827 0)
(0.0812754 -0.0170856 0)
(0.0990527 -0.0169499 0)
(0.116178 -0.0170554 0)
(0.132892 -0.0177177 0)
(0.148819 -0.0183981 0)
(0.16454 -0.0206705 0)
(0.183254 -0.0260465 0)
(0.20146 -0.0221686 0)
(0.210425 -0.0010156 0)
(0.201875 0.022168 0)
(0.183008 0.0297187 0)
(0.158902 0.0269629 0)
(0.137815 0.0227512 0)
(0.119095 0.0189488 0)
(0.102187 0.0161951 0)
(0.0869158 0.0136648 0)
(0.0737012 0.011196 0)
(0.0627098 0.00893193 0)
(0.0538138 0.0069914 0)
(0.046715 0.00547357 0)
(0.0409734 0.00446031 0)
(0.0360411 0.00400045 0)
(0.0313184 0.00408999 0)
(0.0262299 0.00462894 0)
(0.0203606 0.00533508 0)
(0.0136972 0.00562371 0)
(0.00678197 0.0044881 0)
(1.04785e-12 1.29614e-12 0)
(1.25125e-13 -7.13064e-14 0)
(2.24754e-13 -7.37204e-14 0)
(2.65054e-13 -3.17459e-14 0)
(2.7325e-13 3.75582e-16 0)
(2.61755e-13 2.31522e-14 0)
(2.38429e-13 3.64615e-14 0)
(2.09298e-13 4.2842e-14 0)
(1.78351e-13 4.40772e-14 0)
(1.4846e-13 4.16617e-14 0)
(1.21446e-13 3.71396e-14 0)
(9.81972e-14 3.16001e-14 0)
(7.9028e-14 2.57536e-14 0)
(6.3898e-14 2.0101e-14 0)
(5.24977e-14 1.50286e-14 0)
(4.42864e-14 1.0844e-14 0)
(3.85333e-14 7.73984e-15 0)
(3.44418e-14 5.68121e-15 0)
(3.1285e-14 4.46276e-15 0)
(2.85323e-14 3.62946e-15 0)
(2.68491e-14 2.38914e-15 0)
(1.01804e-14 8.08076e-15 0)
(-2.9284e-05 7.9644e-05 0)
(-0.000108583 4.09084e-05 0)
(-0.000106269 -4.04209e-05 0)
(-2.85999e-05 -7.40499e-05 0)
(3.41602e-14 -7.5466e-15 0)
(7.41106e-14 -2.85183e-15 0)
(7.6529e-14 -4.37073e-15 0)
(7.99661e-14 -4.48293e-15 0)
(8.3017e-14 -3.7727e-15 0)
(8.53063e-14 -2.59341e-15 0)
(8.66355e-14 -1.17161e-15 0)
(8.69226e-14 3.17731e-16 0)
(8.61861e-14 1.73141e-15 0)
(8.45272e-14 2.96024e-15 0)
(8.21089e-14 3.92606e-15 0)
(7.91367e-14 4.58135e-15 0)
(7.58354e-14 4.91427e-15 0)
(7.24193e-14 4.94843e-15 0)
(6.90622e-14 4.72525e-15 0)
(6.58655e-14 4.26252e-15 0)
(6.2786e-14 3.47259e-15 0)
(5.93656e-14 1.96628e-15 0)
(5.35516e-14 -1.61548e-15 0)
(3.70854e-14 -1.20262e-14 0)
(1.23698e-14 -4.16743e-17 0)
(-1.40283e-07 9.01965e-08 0)
(4.27564e-08 -2.52878e-08 0)
(5.72662e-08 6.0551e-08 0)
(4.7101e-08 1.17715e-07 0)
(5.5748e-08 1.71499e-07 0)
(1.51847e-08 -3.1292e-07 0)
(4.41738e-08 -3.44961e-07 0)
(2.01501e-13 1.50803e-13 0)
(4.738e-13 3.32208e-13 0)
(5.45405e-13 1.50748e-13 0)
(5.40946e-13 5.8555e-14 0)
(5.36631e-13 -3.18725e-15 0)
(5.44744e-13 -6.52432e-14 0)
(5.52807e-13 -1.58592e-13 0)
(4.83447e-13 -3.42912e-13 0)
(2.06547e-13 -1.5678e-13 0)
(2.30894e-07 3.98689e-07 0)
(5.81523e-08 3.89967e-07 0)
(1.4457e-07 -1.04801e-07 0)
(8.83192e-08 -3.59472e-08 0)
(3.38647e-08 2.04442e-08 0)
(-6.12181e-08 -1.41213e-08 0)
(-3.32552e-08 -8.39962e-08 0)
(-2.08399e-07 -1.33498e-08 0)
(4.24118e-07 1.4896e-07 0)
(5.97683e-15 -1.18931e-16 0)
(1.67467e-14 8.63299e-15 0)
(2.13366e-14 3.94807e-15 0)
(2.17813e-14 2.12736e-15 0)
(2.13583e-14 1.39731e-15 0)
(2.07772e-14 1.099e-15 0)
(2.01746e-14 9.65206e-16 0)
(1.95846e-14 8.80616e-16 0)
(1.90291e-14 7.96e-16 0)
(1.853e-14 6.95357e-16 0)
(1.81048e-14 5.80891e-16 0)
(1.77617e-14 4.63674e-16 0)
(1.74982e-14 3.56119e-16 0)
(1.73047e-14 2.666e-16 0)
(1.71671e-14 1.96175e-16 0)
(1.70671e-14 1.49342e-16 0)
(1.69981e-14 1.18894e-16 0)
(1.66188e-14 1.3023e-16 0)
(9.53092e-15 -2.57561e-16 0)
(-2.23755e-06 1.66475e-06 0)
(1.30921e-06 -1.99816e-07 0)
(-1.25105e-06 -1.29489e-06 0)
(6.11859e-15 4.52349e-16 0)
(1.20216e-14 5.92871e-15 0)
(1.56606e-14 2.71219e-15 0)
(1.59326e-14 1.38696e-15 0)
(1.56584e-14 8.41036e-16 0)
(1.53218e-14 6.10272e-16 0)
(1.49998e-14 5.07497e-16 0)
(1.4698e-14 4.51168e-16 0)
(1.4418e-14 4.0463e-16 0)
(1.41661e-14 3.53048e-16 0)
(1.39509e-14 2.93306e-16 0)
(1.37792e-14 2.28732e-16 0)
(1.36532e-14 1.65834e-16 0)
(1.35676e-14 1.11971e-16 0)
(1.35084e-14 7.2688e-17 0)
(1.34571e-14 4.92604e-17 0)
(1.33992e-14 3.28192e-17 0)
(1.33208e-14 4.05286e-18 0)
(1.38117e-14 -9.11514e-17 0)
(4.72313e-15 7.50469e-15 0)
(-2.05259e-05 7.29749e-05 0)
(-0.000117669 9.49554e-05 0)
(-0.000196458 7.34417e-05 0)
(-0.000225415 2.74483e-05 0)
(-0.000190575 -2.7452e-05 0)
(-8.98687e-05 -8.03312e-05 0)
(6.95002e-05 -0.000124639 0)
(0.000274931 -0.00015741 0)
(0.000511959 -0.000178215 0)
(0.000766632 -0.000188213 0)
(0.00102692 -0.000189425 0)
(0.00128347 -0.000184246 0)
(0.00152984 -0.000175164 0)
(0.00176251 -0.000164674 0)
(0.00198091 -0.000155312 0)
(0.0021869 -0.000149778 0)
(0.00238365 -0.000151258 0)
(0.00257951 -0.000164439 0)
(0.00280145 -0.000194268 0)
(0.00303012 -0.00023073 0)
(0.00557601 -2.7811e-06 0)
(0.0055683 1.7787e-05 0)
(0.00553403 4.75829e-05 0)
(0.00547745 7.96709e-05 0)
(0.00539928 0.000112158 0)
(0.00529835 0.00014487 0)
(0.00517363 0.000178328 0)
(0.00502391 0.000213263 0)
(0.0048476 0.000250315 0)
(0.00464283 0.000289863 0)
(0.00440766 0.000331909 0)
(0.00414034 0.000375966 0)
(0.00383967 0.000420945 0)
(0.0035054 0.000465017 0)
(0.00313877 0.000505477 0)
(0.00274312 0.000538631 0)
(0.00232452 0.000559751 0)
(0.00189241 0.000563185 0)
(0.00146011 0.000542759 0)
(0.001045 0.000492641 0)
(0.000668008 0.000408914 0)
(0.000352047 0.000292089 0)
(0.000118744 0.000150718 0)
(-1.6742e-05 5.92529e-06 0)
(-5.36666e-05 -0.000104558 0)
(-1.81174e-05 -0.000127565 0)
(3.81286e-15 -1.3304e-14 0)
(1.18412e-14 -4.95452e-16 0)
(1.15931e-14 -5.16921e-16 0)
(1.18757e-14 -4.81429e-16 0)
(1.2092e-14 -4.18086e-16 0)
(1.22507e-14 -3.60922e-16 0)
(1.23728e-14 -3.33834e-16 0)
(1.24842e-14 -3.47229e-16 0)
(1.26104e-14 -3.99696e-16 0)
(1.27709e-14 -4.81455e-16 0)
(1.29776e-14 -5.78033e-16 0)
(1.32331e-14 -6.7345e-16 0)
(1.35313e-14 -7.53339e-16 0)
(1.38575e-14 -8.08392e-16 0)
(1.4192e-14 -8.39177e-16 0)
(1.45166e-14 -8.62091e-16 0)
(1.48302e-14 -9.1643e-16 0)
(1.51725e-14 -1.07319e-15 0)
(1.5735e-14 -1.44498e-15 0)
(1.70669e-14 -2.25238e-15 0)
(9.43051e-15 -4.25884e-15 0)
(-1.1434e-06 1.45621e-06 0)
(1.26996e-06 -8.6882e-07 0)
(1.67161e-06 -2.26302e-07 0)
(-1.02741e-06 1.25551e-06 0)
(1.00068e-14 2.76199e-16 0)
(1.83373e-14 4.60269e-16 0)
(1.81629e-14 2.94835e-16 0)
(1.80037e-14 6.56941e-17 0)
(1.79874e-14 -1.51139e-16 0)
(1.80693e-14 -3.74803e-16 0)
(1.82488e-14 -6.24959e-16 0)
(1.85431e-14 -9.01866e-16 0)
(1.89665e-14 -1.18657e-15 0)
(1.95176e-14 -1.44923e-15 0)
(2.01747e-14 -1.66078e-15 0)
(2.08959e-14 -1.80562e-15 0)
(2.1621e-14 -1.89349e-15 0)
(2.227e-14 -1.97054e-15 0)
(2.27275e-14 -2.12927e-15 0)
(2.27896e-14 -2.49872e-15 0)
(2.20671e-14 -3.1541e-15 0)
(2.01448e-14 -3.57212e-15 0)
(9.05283e-15 8.86737e-17 0)
(8.79957e-07 -2.44149e-07 0)
(-4.42954e-07 8.48778e-08 0)
(-1.01478e-07 6.55836e-08 0)
(-1.38653e-07 -1.33425e-07 0)
(-2.16101e-08 -1.72404e-07 0)
(-1.79687e-08 -2.04256e-07 0)
(2.36426e-07 3.17628e-07 0)
(-3.73685e-17 8.24253e-14 0)
(1.64722e-13 1.62123e-13 0)
(3.61143e-13 2.97751e-13 0)
(4.29281e-13 2.49953e-13 0)
(4.78973e-13 1.53513e-13 0)
(4.95023e-13 7.17929e-14 0)
(4.97394e-13 2.69104e-15 0)
(4.9331e-13 -6.62706e-14 0)
(4.75675e-13 -1.47548e-13 0)
(4.24691e-13 -2.43251e-13 0)
(3.55289e-13 -2.90493e-13 0)
(1.61446e-13 -1.57463e-13 0)
(1.33727e-16 -7.97629e-14 0)
(-6.04421e-07 -1.48207e-07 0)
(6.75232e-08 1.91218e-07 0)
(-5.11611e-08 2.2742e-07 0)
(-5.56242e-07 1.01106e-07 0)
(7.55893e-07 -1.19867e-08 0)
(2.4194e-14 -1.58743e-17 0)
(5.28238e-14 -9.71464e-15 0)
(5.94379e-14 -1.04022e-14 0)
(6.44677e-14 -9.97004e-15 0)
(6.86174e-14 -9.60331e-15 0)
(7.2463e-14 -9.37146e-15 0)
(7.6232e-14 -9.18266e-15 0)
(7.99791e-14 -8.911e-15 0)