/*--------------------------------*- C++ -*----------------------------------*\
  =========                 |
  \\      /  F ield         | OpenFOAM: The Open Source CFD Toolbox
   \\    /   O peration     | Website:  https://openfoam.org
    \\  /    A nd           | Version:  7
     \\/     M anipulation  |
\*---------------------------------------------------------------------------*/
FoamFile
{
    version     2.0;
    format      ascii;
    class       volScalarField;
    location    "10";
    object      C;
}
// * * * * * * * * * * * * * * * * * * * * * * * * * * * * * * * * * * * * * //

dimensions      [0 0 0 0 0 0 0];

internalField   nonuniform List<scalar> 
5625
(
0.01
0.01
0.01
0.01
0.01
0.01
0.01
0.01
0.01
0.01
0.01
0.01
0.01
0.01
0.01
0.01
0.01
0.01
0.01
0.01
0.01
0.01
0.01
0.01
0.01
0.01
0.01
0.01
0.01
0.01
0.01
0.01
0.00999999
0.00999999
0.00999999
0.00999999
0.00999998
0.00999998
0.00999998
0.00999997
0.00999996
0.00999996
0.00999995
0.00999994
0.00999993
0.00999991
0.0099999
0.00999989
0.00999987
0.00999985
0.00999983
0.0099998
0.00999978
0.00999975
0.00999972
0.00999969
0.00999965
0.00999961
0.00999957
0.00999952
0.00999947
0.00999942
0.00999936
0.0099993
0.00999924
0.00999917
0.0099991
0.00999903
0.00999896
0.00999888
0.0099988
0.00999873
0.00999867
0.00999862
0.00999859
0.01
0.01
0.01
0.01
0.01
0.01
0.01
0.01
0.01
0.01
0.01
0.01
0.01
0.01
0.01
0.01
0.01
0.01
0.01
0.01
0.01
0.01
0.01
0.01
0.01
0.01
0.01
0.01
0.01
0.01
0.01
0.01
0.00999999
0.00999999
0.00999999
0.00999999
0.00999998
0.00999998
0.00999997
0.00999997
0.00999996
0.00999995
0.00999995
0.00999994
0.00999992
0.00999991
0.0099999
0.00999988
0.00999986
0.00999984
0.00999982
0.0099998
0.00999977
0.00999974
0.00999971
0.00999968
0.00999964
0.0099996
0.00999956
0.00999951
0.00999946
0.00999941
0.00999935
0.00999929
0.00999923
0.00999916
0.00999909
0.00999902
0.00999894
0.00999887
0.00999879
0.00999871
0.00999865
0.00999859
0.00999856
0.01
0.01
0.01
0.01
0.01
0.01
0.01
0.01
0.01
0.01
0.01
0.01
0.01
0.01
0.01
0.01
0.01
0.01
0.01
0.01
0.01
0.01
0.01
0.01
0.01
0.01
0.01
0.01
0.01
0.01
0.01
0.00999999
0.00999999
0.00999999
0.00999999
0.00999998
0.00999998
0.00999997
0.00999997
0.00999996
0.00999995
0.00999994
0.00999993
0.00999992
0.00999991
0.00999989
0.00999988
0.00999986
0.00999984
0.00999982
0.0099998
0.00999977
0.00999974
0.00999971
0.00999968
0.00999964
0.00999961
0.00999956
0.00999952
0.00999947
0.00999942
0.00999937
0.00999931
0.00999925
0.00999918
0.00999912
0.00999904
0.00999897
0.00999889
0.00999881
0.00999873
0.00999865
0.00999858
0.00999851
0.00999848
0.01
0.01
0.01
0.01
0.01
0.01
0.01
0.01
0.01
0.01
0.01
0.01
0.01
0.01
0.01
0.01
0.01
0.01
0.01
0.01
0.01
0.01
0.01
0.01
0.01
0.01
0.01
0.01
0.01
0.01
0.00999999
0.00999999
0.00999999
0.00999998
0.00999998
0.00999997
0.00999997
0.00999996
0.00999995
0.00999994
0.00999993
0.00999992
0.0099999
0.00999989
0.00999987
0.00999985
0.00999983
0.00999981
0.00999979
0.00999976
0.00999973
0.0099997
0.00999967
0.00999964
0.0099996
0.00999956
0.00999952
0.00999948
0.00999943
0.00999938
0.00999932
0.00999927
0.00999921
0.00999914
0.00999907
0.009999
0.00999893
0.00999885
0.00999877
0.00999869
0.0099986
0.00999852
0.00999844
0.00999837
0.00999832
0.01
0.01
0.01
0.01
0.01
0.01
0.01
0.01
0.01
0.01
0.01
0.01
0.01
0.01
0.01
0.01
0.01
0.01
0.01
0.01
0.01
0.01
0.01
0.01
0.01
0.01
0.01
0.01
0.00999999
0.00999999
0.00999999
0.00999998
0.00999998
0.00999997
0.00999996
0.00999995
0.00999994
0.00999992
0.00999991
0.00999989
0.00999988
0.00999986
0.00999984
0.00999981
0.00999979
0.00999976
0.00999974
0.00999971
0.00999967
0.00999964
0.00999961
0.00999957
0.00999953
0.00999949
0.00999945
0.0099994
0.00999936
0.00999931
0.00999925
0.0099992
0.00999914
0.00999908
0.00999901
0.00999894
0.00999887
0.00999879
0.00999871
0.00999863
0.00999855
0.00999846
0.00999837
0.00999828
0.0099982
0.00999812
0.00999807
0.01
0.01
0.01
0.01
0.01
0.01
0.01
0.01
0.01
0.01
0.01
0.01
0.01
0.01
0.01
0.01
0.01
0.01
0.01
0.01
0.01
0.01
0.01
0.01
0.01
0.01
0.00999999
0.00999999
0.00999999
0.00999998
0.00999997
0.00999996
0.00999995
0.00999993
0.00999991
0.00999989
0.00999987
0.00999985
0.00999982
0.00999979
0.00999976
0.00999973
0.0099997
0.00999966
0.00999962
0.00999958
0.00999954
0.0099995
0.00999946
0.00999942
0.00999937
0.00999932
0.00999928
0.00999923
0.00999917
0.00999912
0.00999907
0.00999901
0.00999895
0.00999888
0.00999882
0.00999875
0.00999868
0.0099986
0.00999852
0.00999844
0.00999836
0.00999827
0.00999818
0.00999809
0.00999799
0.0099979
0.00999781
0.00999772
0.00999767
0.01
0.01
0.01
0.01
0.01
0.01
0.01
0.01
0.01
0.01
0.01
0.01
0.01
0.01
0.01
0.01
0.01
0.01
0.01
0.01
0.01
0.01
0.01
0.01
0.01
0.00999999
0.00999999
0.00999998
0.00999997
0.00999995
0.00999994
0.00999991
0.00999988
0.00999985
0.00999981
0.00999977
0.00999973
0.00999968
0.00999963
0.00999958
0.00999953
0.00999947
0.00999942
0.00999936
0.0099993
0.00999924
0.00999918
0.00999912
0.00999906
0.009999
0.00999894
0.00999888
0.00999882
0.00999875
0.00999869
0.00999863
0.00999857
0.0099985
0.00999843
0.00999836
0.00999829
0.00999821
0.00999814
0.00999805
0.00999797
0.00999788
0.00999779
0.0099977
0.0099976
0.0099975
0.0099974
0.0099973
0.00999721
0.00999712
0.00999706
0.01
0.01
0.01
0.01
0.01
0.01
0.01
0.01
0.01
0.01
0.01
0.01
0.01
0.01
0.01
0.01
0.01
0.01
0.01
0.01
0.01
0.01
0.01
0.00999999
0.00999999
0.00999998
0.00999997
0.00999995
0.00999993
0.0099999
0.00999985
0.0099998
0.00999973
0.00999966
0.00999958
0.0099995
0.00999941
0.00999932
0.00999923
0.00999914
0.00999904
0.00999894
0.00999884
0.00999875
0.00999865
0.00999856
0.00999847
0.00999839
0.00999831
0.00999823
0.00999815
0.00999808
0.009998
0.00999793
0.00999786
0.0099978
0.00999773
0.00999766
0.00999758
0.00999751
0.00999744
0.00999736
0.00999728
0.00999719
0.0099971
0.00999701
0.00999692
0.00999682
0.00999672
0.00999662
0.00999651
0.00999641
0.00999631
0.00999622
0.00999615
0.01
0.01
0.01
0.01
0.01
0.01
0.01
0.01
0.01
0.01
0.01
0.01
0.01
0.01
0.01
0.01
0.01
0.01
0.01
0.01
0.01
0.01
0.00999999
0.00999999
0.00999998
0.00999996
0.00999993
0.00999989
0.00999983
0.00999975
0.00999966
0.00999954
0.00999939
0.00999924
0.00999907
0.00999889
0.00999872
0.00999855
0.00999837
0.0099982
0.00999802
0.00999786
0.00999769
0.00999754
0.00999739
0.00999726
0.00999713
0.00999702
0.00999691
0.00999682
0.00999673
0.00999665
0.00999658
0.00999651
0.00999645
0.00999639
0.00999633
0.00999627
0.0099962
0.00999614
0.00999607
0.009996
0.00999593
0.00999585
0.00999577
0.00999568
0.00999559
0.00999549
0.0099954
0.0099953
0.00999519
0.00999509
0.009995
0.0099949
0.00999484
0.01
0.01
0.01
0.01
0.01
0.01
0.01
0.01
0.01
0.01
0.01
0.01
0.01
0.01
0.01
0.01
0.01
0.01
0.01
0.01
0.01
0.00999999
0.00999998
0.00999997
0.00999994
0.0099999
0.00999983
0.00999974
0.0099996
0.00999943
0.0099992
0.00999893
0.00999863
0.00999829
0.00999793
0.00999757
0.00999723
0.0099969
0.00999657
0.00999625
0.00999594
0.00999565
0.00999539
0.00999515
0.00999494
0.00999475
0.0099946
0.00999446
0.00999436
0.00999427
0.0099942
0.00999415
0.00999411
0.00999408
0.00999405
0.00999403
0.00999401
0.009994
0.00999397
0.00999395
0.00999392
0.00999388
0.00999384
0.00999379
0.00999373
0.00999367
0.0099936
0.00999352
0.00999343
0.00999335
0.00999326
0.00999317
0.00999308
0.009993
0.00999294
0.01
0.01
0.01
0.01
0.01
0.01
0.01
0.01
0.01
0.01
0.01
0.01
0.01
0.01
0.01
0.01
0.01
0.01
0.01
0.01
0.00999999
0.00999998
0.00999996
0.00999992
0.00999986
0.00999976
0.00999961
0.00999939
0.00999908
0.00999868
0.00999819
0.00999759
0.00999692
0.0099962
0.00999546
0.00999474
0.00999406
0.00999343
0.00999283
0.00999226
0.00999173
0.00999127
0.00999086
0.00999052
0.00999024
0.00999003
0.00998987
0.00998977
0.00998972
0.00998971
0.00998974
0.00998979
0.00998986
0.00998995
0.00999004
0.00999014
0.00999024
0.00999033
0.00999041
0.00999049
0.00999055
0.0099906
0.00999063
0.00999065
0.00999066
0.00999065
0.00999063
0.0099906
0.00999055
0.0099905
0.00999045
0.00999039
0.00999033
0.00999028
0.00999024
0.01
0.01
0.01
0.01
0.01
0.01
0.01
0.01
0.01
0.01
0.01
0.01
0.01
0.01
0.01
0.01
0.01
0.01
0.01
0.00999999
0.00999998
0.00999995
0.0099999
0.00999982
0.00999968
0.00999945
0.0099991
0.0099986
0.00999792
0.00999704
0.00999595
0.00999468
0.00999326
0.00999176
0.00999025
0.00998882
0.00998752
0.00998635
0.00998527
0.00998429
0.00998343
0.00998271
0.00998214
0.00998171
0.00998143
0.00998128
0.00998125
0.00998132
0.00998148
0.00998171
0.009982
0.00998233
0.00998269
0.00998305
0.00998343
0.00998379
0.00998415
0.00998448
0.0099848
0.00998508
0.00998534
0.00998556
0.00998576
0.00998593
0.00998606
0.00998617
0.00998626
0.00998632
0.00998636
0.00998639
0.0099864
0.0099864
0.0099864
0.0099864
0.0099864
0.01
0.01
0.01
0.01
0.01
0.01
0.01
0.01
0.01
0.01
0.01
0.01
0.01
0.01
0.01
0.01
0.01
0.01
0.00999999
0.00999997
0.00999994
0.00999989
0.00999978
0.00999959
0.00999926
0.00999875
0.00999798
0.00999689
0.0099954
0.00999351
0.00999119
0.00998853
0.00998561
0.00998258
0.00997959
0.00997683
0.0099744
0.00997229
0.00997041
0.00996879
0.00996747
0.00996646
0.00996577
0.00996539
0.0099653
0.00996546
0.00996584
0.00996642
0.00996713
0.00996796
0.00996887
0.00996983
0.0099708
0.00997177
0.00997272
0.00997364
0.00997451
0.00997532
0.00997608
0.00997677
0.0099774
0.00997796
0.00997846
0.0099789
0.00997928
0.00997961
0.00997989
0.00998013
0.00998032
0.00998049
0.00998063
0.00998075
0.00998085
0.00998095
0.00998102
0.01
0.01
0.01
0.01
0.01
0.01
0.01
0.01
0.01
0.01
0.01
0.01
0.01
0.01
0.01
0.01
0.01
0.00999999
0.00999997
0.00999994
0.00999987
0.00999974
0.0099995
0.00999908
0.00999837
0.00999726
0.0099956
0.00999326
0.00999014
0.00998618
0.00998142
0.00997601
0.00997018
0.00996424
0.00995852
0.00995333
0.00994894
0.00994527
0.00994214
0.00993961
0.00993773
0.00993652
0.00993596
0.009936
0.00993659
0.00993765
0.00993909
0.00994084
0.00994281
0.00994493
0.00994713
0.00994936
0.00995156
0.00995371
0.00995576
0.00995771
0.00995954
0.00996123
0.00996279
0.00996421
0.0099655
0.00996666
0.00996769
0.00996861
0.00996942
0.00997012
0.00997074
0.00997127
0.00997173
0.00997213
0.00997249
0.0099728
0.00997308
0.00997334
0.00997354
0.01
0.01
0.01
0.01
0.01
0.01
0.01
0.01
0.01
0.01
0.01
0.01
0.01
0.01
0.01
0.01
0.00999999
0.00999998
0.00999994
0.00999987
0.00999972
0.00999944
0.00999892
0.00999801
0.00999651
0.00999417
0.00999071
0.00998589
0.00997952
0.00997155
0.0099621
0.0099515
0.00994026
0.00992901
0.0099184
0.00990904
0.00990136
0.00989522
0.00989024
0.00988655
0.0098842
0.00988318
0.00988341
0.00988478
0.00988712
0.00989027
0.00989404
0.00989826
0.00990278
0.00990744
0.00991213
0.00991675
0.00992123
0.00992552
0.00992956
0.00993333
0.00993683
0.00994005
0.00994298
0.00994563
0.00994803
0.00995017
0.00995209
0.00995379
0.00995529
0.00995661
0.00995777
0.00995878
0.00995967
0.00996045
0.00996115
0.00996177
0.00996234
0.00996285
0.00996325
0.01
0.01
0.01
0.01
0.01
0.01
0.01
0.01
0.01
0.01
0.01
0.01
0.01
0.01
0.01
0.00999999
0.00999998
0.00999995
0.00999987
0.00999972
0.00999941
0.00999881
0.00999772
0.00999583
0.00999275
0.00998799
0.00998105
0.00997147
0.00995896
0.00994349
0.0099254
0.00990541
0.00988455
0.00986406
0.00984515
0.00982888
0.00981594
0.00980608
0.0097986
0.00979369
0.00979139
0.0097916
0.00979411
0.00979864
0.00980482
0.00981229
0.00982069
0.00982968
0.00983897
0.0098483
0.00985748
0.00986635
0.0098748
0.00988275
0.00989015
0.00989698
0.00990324
0.00990894
0.0099141
0.00991874
0.0099229
0.00992661
0.00992991
0.00993284
0.00993542
0.00993769
0.00993969
0.00994144
0.00994299
0.00994435
0.00994557
0.00994666
0.00994765
0.00994854
0.00994924
0.01
0.01
0.01
0.01
0.01
0.01
0.01
0.01
0.01
0.01
0.01
0.01
0.01
0.01
0.00999999
0.00999998
0.00999995
0.00999989
0.00999974
0.00999942
0.00999878
0.00999756
0.00999536
0.00999158
0.00998547
0.00997615
0.00996272
0.0099444
0.00992077
0.00989194
0.00985867
0.00982243
0.00978525
0.00974942
0.00971708
0.00968995
0.00966907
0.0096539
0.00964334
0.00963763
0.00963675
0.00964042
0.00964812
0.0096592
0.00967295
0.00968862
0.00970554
0.00972309
0.00974078
0.00975817
0.00977496
0.00979092
0.0098059
0.00981981
0.0098326
0.00984429
0.0098549
0.00986447
0.00987307
0.00988075
0.0098876
0.00989368
0.00989906
0.00990382
0.00990801
0.00991169
0.00991493
0.00991778
0.00992028
0.0099225
0.00992447
0.00992625
0.00992786
0.0099293
0.00993043
0.01
0.01
0.01
0.01
0.01
0.01
0.01
0.01
0.01
0.01
0.01
0.01
0.01
0.00999999
0.00999999
0.00999996
0.0099999
0.00999977
0.00999947
0.00999884
0.00999758
0.00999518
0.00999087
0.00998358
0.00997193
0.00995437
0.00992937
0.00989574
0.00985293
0.00980138
0.00974267
0.00967965
0.00961607
0.00955604
0.00950315
0.0094599
0.00942759
0.0094053
0.00939143
0.00938627
0.00938969
0.00940098
0.00941903
0.0094425
0.00946999
0.00950013
0.00953171
0.00956371
0.00959527
0.00962577
0.00965475
0.0096819
0.00970706
0.00973015
0.00975118
0.00977021
0.00978732
0.00980264
0.00981631
0.00982845
0.00983921
0.00984872
0.0098571
0.00986448
0.00987096
0.00987666
0.00988165
0.00988604
0.0098899
0.00989332
0.00989635
0.00989908
0.00990155
0.00990376
0.00990549
0.01
0.01
0.01
0.01
0.01
0.01
0.01
0.01
0.01
0.01
0.01
0.01
0.01
0.00999999
0.00999997
0.00999992
0.00999981
0.00999955
0.00999897
0.00999776
0.00999534
0.00999078
0.00998269
0.00996914
0.00994775
0.00991593
0.00987128
0.00981208
0.00973779
0.0096495
0.00955024
0.00944516
0.00934093
0.00924467
0.00916215
0.00909641
0.00904862
0.00901729
0.00900052
0.00899879
0.00901171
0.00903779
0.00907471
0.00911987
0.00917067
0.00922473
0.00928003
0.00933492
0.00938812
0.00943873
0.00948615
0.00953004
0.00957024
0.00960677
0.00963973
0.0096693
0.00969569
0.00971916
0.00973996
0.00975834
0.00977454
0.0097888
0.00980133
0.00981232
0.00982195
0.00983038
0.00983778
0.00984426
0.00984996
0.00985499
0.00985946
0.00986347
0.0098671
0.00987034
0.00987287
0.01
0.01
0.01
0.01
0.01
0.01
0.01
0.01
0.01
0.01
0.01
0.01
0.00999999
0.00999998
0.00999994
0.00999986
0.00999964
0.00999915
0.00999807
0.00999581
0.00999134
0.009983
0.00996834
0.00994409
0.00990633
0.00985098
0.00977452
0.00967474
0.00955142
0.00940677
0.00924607
0.00907804
0.00891406
0.00876623
0.00864367
0.00854879
0.00848126
0.00843913
0.00842098
0.00842781
0.00845896
0.00851132
0.0085803
0.00866099
0.00874889
0.0088401
0.00893145
0.0090205
0.00910547
0.00918518
0.00925896
0.00932649
0.00938776
0.00944293
0.00949231
0.00953629
0.00957529
0.00960978
0.00964017
0.0096669
0.00969037
0.00971094
0.00972895
0.0097447
0.00975848
0.00977052
0.00978105
0.00979028
0.00979838
0.00980552
0.00981186
0.00981753
0.00982266
0.00982723
0.0098308
0.01
0.01
0.01
0.01
0.01
0.01
0.01
0.01
0.01
0.01
0.01
0.01
0.00999999
0.00999996
0.0099999
0.00999974
0.00999935
0.00999846
0.0099965
0.00999245
0.00998448
0.00996977
0.00994418
0.0099024
0.00983831
0.0097459
0.00962042
0.00945956
0.009264
0.00903756
0.00878835
0.00853033
0.00828198
0.00806358
0.00789104
0.00776192
0.00767142
0.00761758
0.00760137
0.00762508
0.00768801
0.00778401
0.00790409
0.00803946
0.00818275
0.00832806
0.00847085
0.00860777
0.00873659
0.00885596
0.00896524
0.00906433
0.00915348
0.00923316
0.00930401
0.00936673
0.00942207
0.00947075
0.00951347
0.0095509
0.00958364
0.00961225
0.00963723
0.00965902
0.00967804
0.00969464
0.00970913
0.00972181
0.00973293
0.00974273
0.00975141
0.00975917
0.00976617
0.00977241
0.00977727
0.01
0.01
0.01
0.01
0.01
0.01
0.01
0.01
0.01
0.01
0.01
0.00999999
0.00999998
0.00999993
0.00999982
0.00999954
0.00999886
0.0099973
0.00999389
0.00998686
0.00997317
0.00994812
0.0099051
0.00983583
0.00973128
0.00958317
0.00938587
0.00913794
0.00884202
0.0085036
0.00813301
0.0077514
0.00738734
0.00707299
0.00684478
0.0066829
0.00657109
0.00650831
0.00650037
0.00655227
0.00666505
0.00682874
0.00702558
0.00724001
0.00746072
0.00767972
0.00789117
0.00809096
0.00827657
0.00844672
0.00860107
0.00873992
0.00886398
0.00897421
0.00907171
0.00915763
0.00923312
0.00929927
0.00935713
0.00940767
0.00945175
0.00949018
0.00952366
0.00955282
0.00957823
0.00960036
0.00961967
0.00963654
0.00965133
0.00966433
0.00967585
0.00968615
0.00969541
0.00970365
0.00971006
0.01
0.01
0.01
0.01
0.01
0.01
0.01
0.01
0.01
0.01
0.01
0.00999999
0.00999996
0.00999989
0.0099997
0.00999922
0.00999806
0.00999542
0.00998969
0.00997792
0.00995521
0.00991409
0.00984437
0.00973383
0.00956984
0.00934187
0.00904442
0.00867897
0.00825213
0.00776977
0.00723989
0.00669365
0.00617399
0.00571627
0.00544594
0.00527428
0.0051588
0.00509982
0.00510812
0.00519425
0.00536723
0.00563189
0.00594054
0.00626341
0.00658534
0.00689811
0.00719545
0.00747281
0.00772766
0.00795912
0.00816747
0.00835371
0.00851922
0.00866563
0.00879462
0.0089079
0.0090071
0.00909381
0.00916946
0.00923538
0.00929277
0.00934271
0.00938615
0.00942394
0.00945682
0.00948544
0.00951038
0.00953215
0.00955122
0.00956798
0.00958281
0.00959605
0.00960795
0.00961853
0.00962674
0.01
0.01
0.01
0.01
0.01
0.01
0.01
0.01
0.01
0.01
0.00999999
0.00999998
0.00999993
0.00999981
0.0099995
0.00999872
0.00999683
0.00999251
0.00998318
0.00996417
0.0099278
0.00986266
0.00975377
0.00958388
0.00933641
0.00899909
0.00856825
0.00805204
0.00746537
0.0068113
0.00607818
0.00531395
0.00460403
0.00384013
0.0036588
0.00355134
0.00348088
0.00344959
0.00346863
0.0035565
0.00372541
0.00418118
0.00465878
0.00512397
0.00556852
0.00599349
0.00639333
0.00676231
0.00709786
0.00739994
0.00766996
0.00791001
0.00812246
0.00830973
0.00847426
0.00861839
0.00874434
0.0088542
0.00894988
0.00903312
0.0091055
0.0091684
0.00922306
0.00927056
0.00931186
0.00934778
0.00937906
0.00940636
0.00943024
0.00945122
0.00946978
0.00948633
0.00950119
0.00951438
0.0095246
0.01
0.01
0.01
0.01
0.01
0.01
0.01
0.01
0.01
0.01
0.00999999
0.00999996
0.00999989
0.00999971
0.00999921
0.00999797
0.00999498
0.00998817
0.00997351
0.00994382
0.00988755
0.00978798
0.00962393
0.00937241
0.0090129
0.00853227
0.00793037
0.0072274
0.00645804
0.00562122
0.00462643
0.00352469
0.00276544
0.000696727
0.000156987
0.000157864
0.000164626
0.000168586
0.000164934
0.000153923
0.00030758
0.00249202
0.00319164
0.00383141
0.00440517
0.0049648
0.00549073
0.00596904
0.00639749
0.00677875
0.00711681
0.00741573
0.00767928
0.00791097
0.00811407
0.00829164
0.00844656
0.00858149
0.00869886
0.00880085
0.00888944
0.00896637
0.00903318
0.0090912
0.00914161
0.00918544
0.00922359
0.00925687
0.00928596
0.00931152
0.0093341
0.00935422
0.00937228
0.00938829
0.00940067
0.01
0.01
0.01
0.01
0.01
0.01
0.01
0.01
0.01
0.00999999
0.00999998
0.00999994
0.00999984
0.00999955
0.0099988
0.00999689
0.00999232
0.00998192
0.00995964
0.00991485
0.00983073
0.00968373
0.0094453
0.00908637
0.00858339
0.00792283
0.00710663
0.0061701
0.00519798
0.0042248
0.00289406
0.000533802
0.000168153
0.000483552
0.000116449
0.000113961
0.000115972
0.000117384
0.000115962
0.000111726
0.000237522
0.000343823
0.000207221
0.00235737
0.00300065
0.00377581
0.0044851
0.00510176
0.00563754
0.00610587
0.00651704
0.00687857
0.00719624
0.00747481
0.0077185
0.00793119
0.00811646
0.00827759
0.00841757
0.00853911
0.00864459
0.00873612
0.00881556
0.00888452
0.00894442
0.00899649
0.00904179
0.00908128
0.0091158
0.00914609
0.00917285
0.00919668
0.00921804
0.00923697
0.00925157
0.01
0.01
0.01
0.01
0.01
0.01
0.01
0.01
0.01
0.00999999
0.00999997
0.00999992
0.00999976
0.00999934
0.00999822
0.0099954
0.00998863
0.00997328
0.00994054
0.00987517
0.00975362
0.00954393
0.00920934
0.0087155
0.00803792
0.00716239
0.00608107
0.00482275
0.0035719
0.00274305
0.000197563
0.000367776
9.8804e-05
3.98993e-07
1.17161e-07
9.05081e-08
7.47236e-08
6.8746e-08
7.37164e-08
9.25572e-08
1.66058e-07
4.61754e-05
0.000157835
0.000335369
0.000250638
0.00239138
0.00339333
0.00417729
0.00482981
0.00538983
0.0058776
0.00630477
0.00667905
0.00700641
0.00729207
0.0075408
0.00775699
0.00794467
0.00810747
0.00824865
0.00837105
0.0084772
0.00856927
0.00864917
0.00871854
0.00877881
0.00883123
0.00887691
0.00891681
0.00895182
0.00898271
0.00901021
0.00903485
0.00905665
0.00907345
0.01
0.01
0.01
0.01
0.01
0.01
0.01
0.01
0.01
0.00999999
0.00999996
0.00999989
0.00999967
0.00999906
0.00999746
0.00999341
0.00998372
0.00996179
0.00991525
0.00982298
0.00965307
0.00936381
0.00891004
0.00825443
0.00737656
0.0062636
0.0048697
0.00309657
0.000942602
0.000266132
0.000149479
3.23607e-07
2.67132e-08
1.12243e-10
4.70529e-11
2.88698e-11
2.0115e-11
1.72128e-11
1.97963e-11
3.10423e-11
6.30535e-11
3.84804e-09
8.62529e-08
3.19259e-05
0.000195435
0.00021744
0.00227888
0.00321238
0.00397643
0.00462984
0.00519879
0.0056964
0.00613105
0.00650965
0.00683858
0.00712382
0.00737088
0.00758473
0.0077698
0.00793
0.00806871
0.00818888
0.00829304
0.00838336
0.00846175
0.00852983
0.00858902
0.00864056
0.00868557
0.00872503
0.00875984
0.00879081
0.00881855
0.00884309
0.00886196
0.01
0.01
0.01
0.01
0.01
0.01
0.01
0.01
0.00999999
0.00999998
0.00999995
0.00999984
0.00999954
0.0099987
0.00999648
0.00999087
0.00997744
0.00994714
0.00988312
0.00975707
0.0095272
0.00914088
0.00854504
0.0077032
0.00660912
0.00527081
0.00360029
0.000798936
0.000573624
7.32269e-05
6.8431e-08
1.00461e-10
3.96425e-12
3.33038e-14
1.29177e-14
6.37886e-15
3.85281e-15
3.12078e-15
3.7904e-15
7.21398e-15
1.9611e-14
3.21067e-13
2.67008e-11
2.60496e-09
1.90918e-07
0.000155523
0.000315064
0.00218952
0.00305439
0.00380883
0.004472
0.00505124
0.00555364
0.00598749
0.00636132
0.00668321
0.0069604
0.00719925
0.00740524
0.00758309
0.0077368
0.00786976
0.0079849
0.00808467
0.0081712
0.00824631
0.00831159
0.00836842
0.00841803
0.00846151
0.00849987
0.008534
0.00856459
0.00859165
0.00861244
0.01
0.01
0.01
0.01
0.01
0.01
0.01
0.01
0.00999999
0.00999998
0.00999993
0.00999979
0.00999939
0.00999827
0.00999529
0.00998776
0.00996975
0.00992925
0.00984404
0.00967739
0.00937625
0.00887614
0.00811653
0.00706478
0.00573965
0.00422682
0.00270995
0.000318809
4.92262e-05
1.19176e-08
1.29969e-11
2.63599e-14
4.57917e-16
8.67154e-18
2.77843e-18
1.17297e-18
6.69486e-19
5.39515e-19
6.56819e-19
1.37093e-18
4.91547e-18
4.48262e-17
6.5551e-15
2.81273e-13
9.40362e-11
9.6072e-08
0.000126782
0.00015701
0.0020065
0.00289221
0.00368463
0.00436846
0.00495055
0.00544464
0.0058645
0.00622213
0.00652759
0.00678919
0.0070138
0.00720707
0.00737371
0.00751763
0.0076421
0.00774988
0.00784332
0.00792441
0.00799488
0.00805623
0.00810982
0.00815683
0.00819835
0.00823535
0.00826857
0.008298
0.0083206
0.01
0.01
0.01
0.01
0.01
0.01
0.01
0.01
0.00999999
0.00999997
0.00999991
0.00999973
0.00999921
0.00999776
0.00999389
0.00998412
0.00996077
0.00990839
0.00979869
0.00958551
0.00920352
0.00857572
0.00763347
0.0063449
0.00473616
0.00290481
0.000205328
0.000152057
4.90929e-08
8.10163e-12
2.66849e-15
5.97043e-18
5.10916e-20
1.94532e-21
5.22678e-22
2.18708e-22
1.3952e-22
1.20339e-22
1.35669e-22
2.512e-22
1.04088e-21
9.92009e-21
1.34542e-18
6.17414e-17
4.44653e-14
7.2057e-11
1.49715e-07
0.000108297
0.000129715
0.00183388
0.00283954
0.00366255
0.00433529
0.00489128
0.0053551
0.005745
0.00607485
0.00635539
0.00659507
0.0068006
0.00697738
0.00712984
0.00726158
0.00737563
0.00747452
0.00756041
0.00763513
0.0077003
0.00775735
0.00780753
0.00785202
0.00789181
0.00792768
0.00795955
0.00798405
0.01
0.01
0.01
0.01
0.01
0.01
0.01
0.01
0.00999999
0.00999997
0.00999989
0.00999967
0.00999901
0.00999719
0.00999234
0.00998007
0.0099508
0.00988531
0.00974878
0.00948514
0.0090165
0.00825332
0.00711838
0.0055771
0.00363405
0.000336781
0.000251408
2.24104e-07
7.27025e-11
1.86745e-14
4.26584e-18
1.9384e-21
6.92414e-24
3.85139e-25
9.74604e-26
4.96371e-26
3.86804e-26
3.58193e-26
3.7228e-26
5.27765e-26
1.98118e-25
2.38728e-24
2.80633e-22
7.67579e-20
1.31336e-16
2.17898e-13
3.29647e-10
4.90719e-07
0.000274956
0.000436079
0.00200327
0.00297948
0.00373495
0.0043439
0.00484334
0.00525801
0.00560567
0.00589949
0.00614942
0.00636314
0.0065467
0.00670491
0.00684169
0.00696024
0.00706324
0.00715294
0.00723126
0.00729988
0.00736027
0.00741373
0.00746144
0.00750444
0.00754345
0.0075783
0.00760513
0.01
0.01
0.01
0.01
0.01
0.01
0.01
0.01
0.00999999
0.00999996
0.00999987
0.0099996
0.00999881
0.0099966
0.00999071
0.00997582
0.00994036
0.00986127
0.00969715
0.00938234
0.00882736
0.00793175
0.00661064
0.00483591
0.00274905
0.00019269
9.8863e-05
1.88546e-08
2.24113e-12
2.28455e-16
2.63974e-20
4.32229e-24
1.91013e-27
7.04051e-29
2.02698e-29
1.35928e-29
1.20458e-29
1.15042e-29
1.15157e-29
1.33444e-29
3.64544e-29
5.78781e-28
1.47888e-25
2.45053e-22
5.8108e-19
1.64716e-15
6.20234e-12
2.35189e-08
5.63099e-05
0.00011159
0.00144028
0.00238007
0.00317802
0.0038209
0.00434196
0.0047702
0.00512666
0.00542652
0.00568094
0.00589831
0.00608509
0.00624636
0.00638619
0.00650787
0.00661413
0.00670725
0.00678917
0.00686155
0.00692587
0.00698341
0.00703533
0.0070826
0.00712589
0.00716478
0.00719479
0.01
0.01
0.01
0.01
0.01
0.01
0.01
0.01
0.00999999
0.00999995
0.00999985
0.00999953
0.00999861
0.00999601
0.0099891
0.00997165
0.00993017
0.00983795
0.00964759
0.00928513
0.00865227
0.00764171
0.00615743
0.00409386
0.000530954
0.000385209
3.13446e-07
9.94596e-11
3.01848e-14
7.77752e-18
1.70762e-21
3.31822e-25
6.04646e-29
2.34062e-32
4.81295e-33
3.91009e-33
3.64452e-33
3.51105e-33
3.46891e-33
3.66517e-33
7.86465e-33
3.24453e-30
9.63118e-27
2.60593e-23
6.08946e-20
1.19756e-16
1.9348e-13
2.57605e-10
3.22216e-07
0.000168326
0.000230136
0.0018004
0.00268001
0.00334339
0.00386926
0.00429735
0.00465214
0.00495018
0.00520324
0.00541997
0.00560694
0.00576924
0.00591091
0.00603518
0.00614473
0.00624175
0.00632812
0.00640542
0.00647504
0.00653818
0.00659591
0.0066491
0.00669826
0.00674268
0.00677698
0.01
0.01
0.01
0.01
0.01
0.01
0.01
0.01
0.00999998
0.00999995
0.00999983
0.00999947
0.00999842
0.00999549
0.00998766
0.00996792
0.00992109
0.00981736
0.00960442
0.00920234
0.00850897
0.00742327
0.00588361
0.0039065
0.000167382
0.000125632
1.28619e-07
5.09733e-11
1.38822e-14
2.95863e-18
5.50418e-22
1.01483e-25
2.09327e-29
4.94694e-33
2.452e-36
1.07991e-36
1.02217e-36
9.86056e-37
9.69513e-37
1.18173e-36
7.40468e-34
2.57402e-30
8.02609e-27
2.2036e-23
5.21247e-20
1.03146e-16
1.63805e-13
1.9639e-10
1.62354e-07
5.36975e-05
7.10949e-05
0.00154621
0.0023257
0.00295107
0.00345498
0.00386753
0.00421075
0.0045003
0.00474748
0.00496063
0.00514604
0.00530853
0.00545191
0.00557922
0.00569291
0.00579503
0.00588725
0.00597104
0.0060476
0.00611802
0.00618321
0.0062439
0.0063004
0.00635162
0.00639115
0.01
0.01
0.01
0.01
0.01
0.01
0.01
0.00999999
0.00999998
0.00999994
0.00999981
0.00999942
0.00999828
0.00999507
0.00998652
0.00996499
0.00991402
0.00980152
0.00957173
0.00914114
0.00840716
0.00727828
0.00572203
0.00380807
0.000164963
0.00012158
1.05975e-07
3.61304e-11
8.46306e-15
1.6013e-18
2.8895e-22
5.97822e-26
1.50512e-29
4.14627e-33
1.12413e-36
5.64473e-40
2.64119e-40
2.54524e-40
2.88521e-40
1.64499e-37
6.3548e-34
2.23063e-30
7.01121e-27
1.94071e-23
4.62844e-20
9.23168e-17
1.4757e-13
1.77169e-10
1.43526e-07
4.51772e-05
6.0314e-05
0.00138407
0.00208246
0.00265956
0.00313225
0.00352294
0.00385045
0.00412896
0.00436886
0.00457783
0.00476166
0.00492473
0.00507049
0.00520165
0.0053204
0.00542852
0.0055275
0.00561858
0.00570283
0.00578114
0.00585427
0.0059228
0.00598684
0.00604495
0.00608973
0.01
0.01
0.01
0.01
0.01
0.01
0.01
0.00999999
0.00999998
0.00999994
0.0099998
0.00999939
0.00999819
0.00999482
0.00998584
0.00996324
0.00990985
0.00979231
0.0095531
0.00910716
0.00835262
0.00720452
0.00564574
0.00376487
0.000166084
0.000121125
9.60306e-08
3.02507e-11
6.58603e-15
1.19018e-18
2.19174e-22
4.97599e-26
1.36995e-29
3.94766e-33
1.08793e-36
2.79007e-40
1.29425e-43
6.84773e-44
3.55138e-41
1.50262e-37
5.83907e-34
2.05871e-30
6.50025e-27
1.80763e-23
4.33133e-20
8.67907e-17
1.39307e-13
1.676e-10
1.34937e-07
4.20404e-05
5.64631e-05
0.00130214
0.00195286
0.00249731
0.00294716
0.00332158
0.00363761
0.00390839
0.00414359
0.00435033
0.00453392
0.00469837
0.0048468
0.00498166
0.00510489
0.0052181
0.00532259
0.00541946
0.00550963
0.0055939
0.00567292
0.00574716
0.0058166
0.00587957
0.00592801
0.01
0.01
0.01
0.01
0.01
0.01
0.01
0.00999999
0.00999998
0.00999994
0.0099998
0.00999939
0.00999818
0.00999478
0.00998576
0.00996307
0.00990951
0.00979169
0.00955215
0.00910591
0.00835137
0.00720371
0.00564562
0.00376507
0.000166069
0.000121122
9.60985e-08
3.02923e-11
6.59877e-15
1.19276e-18
2.19543e-22
4.9789e-26
1.36955e-29
3.94485e-33
1.08695e-36
2.78728e-40
1.28071e-43
6.72518e-44
3.55018e-41
1.50222e-37
5.8377e-34
2.0583e-30
6.49913e-27
1.80737e-23
4.33083e-20
8.67833e-17
1.393e-13
1.67596e-10
1.3494e-07
4.20487e-05
5.64729e-05
0.00130236
0.00195325
0.00249796
0.00294825
0.00332327
0.00364007
0.00391174
0.00414792
0.00435571
0.00454039
0.00470595
0.00485549
0.00499144
0.00511574
0.00522997
0.00533544
0.00543324
0.00552429
0.00560938
0.00568916
0.0057641
0.00583419
0.00589775
0.00594664
0.01
0.01
0.01
0.01
0.01
0.01
0.01
0.00999999
0.00999998
0.00999994
0.00999981
0.00999941
0.00999823
0.00999495
0.00998623
0.00996434
0.00991268
0.00979902
0.00956762
0.00913534
0.0084005
0.00727263
0.00571931
0.00380792
0.000164925
0.000121561
1.0612e-07
3.62345e-11
8.49876e-15
1.6093e-18
2.90218e-22
5.99012e-26
1.50419e-29
4.13732e-33
1.12088e-36
5.58022e-40
2.58984e-40
2.49645e-40
2.83784e-40
1.64361e-37
6.35037e-34
2.22931e-30
7.00773e-27
1.93992e-23
4.62698e-20
9.2296e-17
1.4755e-13
1.77164e-10
1.43542e-07
4.52044e-05
6.03467e-05
0.00138478
0.00208362
0.00266134
0.003135
0.00352703
0.00385626
0.00413678
0.00437896
0.0045904
0.00477684
0.00494262
0.00509113
0.00522505
0.00534654
0.00545736
0.00555896
0.00565258
0.00573926
0.00581989
0.00589521
0.00596581
0.00603177
0.00609162
0.00613774
0.01
0.01
0.01
0.01
0.01
0.01
0.01
0.00999999
0.00999998
0.00999994
0.00999982
0.00999944
0.00999835
0.00999529
0.00998718
0.00996682
0.00991879
0.00981302
0.00959712
0.00919168
0.00849611
0.00741153
0.00587721
0.00390612
0.000167939
0.000126012
1.28912e-07
5.12298e-11
1.39911e-14
2.9889e-18
5.56643e-22
1.0246e-25
2.10387e-29
4.94806e-33
2.41819e-36
1.0585e-36
1.00304e-36
9.68008e-37
9.52037e-37
1.16315e-36
7.39545e-34
2.5714e-30
8.01933e-27
2.20211e-23
5.2098e-20
1.0311e-16
1.63776e-13
1.96394e-10
1.62404e-07
5.37707e-05
7.11872e-05
0.00154749
0.00232761
0.00295374
0.00345877
0.00387291
0.00421817
0.00451018
0.00476019
0.00497646