/*--------------------------------*- C++ -*----------------------------------*\
  =========                 |
  \\      /  F ield         | OpenFOAM: The Open Source CFD Toolbox
   \\    /   O peration     | Website:  https://openfoam.org
    \\  /    A nd           | Version:  7
     \\/     M anipulation  |
\*---------------------------------------------------------------------------*/
FoamFile
{
    version     2.0;
    format      ascii;
    class       volScalarField;
    location    "10";
    object      p;
}
// * * * * * * * * * * * * * * * * * * * * * * * * * * * * * * * * * * * * * //

dimensions      [0 2 -2 0 0 0 0];

internalField   nonuniform List<scalar> 
5625
(
0.00127686
0.000833844
0.00062144
0.000535213
0.000490077
0.000463118
0.000446243
0.000434904
0.000426679
0.000420307
0.000415069
0.000410518
0.000406359
0.000402383
0.000398441
0.000394417
0.000390222
0.000385783
0.00038104
0.000375945
0.000370457
0.000364541
0.000358171
0.000351326
0.000343991
0.00033616
0.000327832
0.000319014
0.000309721
0.000299975
0.000289805
0.00027925
0.000268351
0.000257161
0.000245733
0.000234128
0.000222408
0.000210638
0.000198882
0.000187205
0.000175668
0.000164331
0.000153249
0.000142471
0.000132041
0.000121997
0.000112369
0.000103181
9.44492e-05
8.61842e-05
7.83896e-05
7.1063e-05
6.41973e-05
5.77803e-05
5.17963e-05
4.6226e-05
4.10475e-05
3.6237e-05
3.17691e-05
2.76175e-05
2.37557e-05
2.01571e-05
1.67956e-05
1.36466e-05
1.06868e-05
7.89596e-06
5.25721e-06
2.75926e-06
3.98795e-07
-1.81358e-06
-3.83335e-06
-5.56505e-06
-6.95422e-06
-7.83077e-06
-5.27387e-06
0.000927133
0.000749511
0.000630283
0.000560569
0.000514563
0.000483296
0.000461887
0.000446709
0.000435456
0.00042673
0.000419651
0.00041364
0.000408303
0.000403365
0.000398625
0.000393934
0.000389178
0.000384268
0.00037913
0.000373708
0.000367955
0.000361831
0.000355308
0.000348363
0.00034098
0.000333151
0.000324875
0.000316158
0.000307011
0.000297457
0.00028752
0.000277236
0.000266643
0.000255786
0.000244717
0.000233487
0.000222155
0.000210777
0.000199413
0.000188121
0.000176956
0.000165973
0.000155221
0.000144746
0.000134589
0.000124785
0.000115362
0.000106343
9.77442e-05
8.95772e-05
8.18464e-05
7.45517e-05
6.7688e-05
6.1246e-05
5.52127e-05
4.95722e-05
4.43058e-05
3.93929e-05
3.48116e-05
3.05391e-05
2.65521e-05
2.28277e-05
1.93435e-05
1.60785e-05
1.30138e-05
1.01335e-05
7.42626e-06
4.88709e-06
2.51955e-06
3.40454e-07
-1.5988e-06
-3.19303e-06
-4.46608e-06
-5.6816e-06
-4.40801e-06
0.000718082
0.000662209
0.000602963
0.000554718
0.00051736
0.000489243
0.000468287
0.000452467
0.000440233
0.000430492
0.000422473
0.000415628
0.000409566
0.000404002
0.000398723
0.000393569
0.000388416
0.000383166
0.000377743
0.000372083
0.000366135
0.00035986
0.000353226
0.000346208
0.000338792
0.000330966
0.00032273
0.000314087
0.000305049
0.000295635
0.000285869
0.000275782
0.000265411
0.000254797
0.000243987
0.00023303
0.000221978
0.000210886
0.000199807
0.000188795
0.000177902
0.000167178
0.00015667
0.000146421
0.000136468
0.000126845
0.000117579
0.000108691
0.000100199
9.21132e-05
8.44392e-05
7.71779e-05
7.03259e-05
6.38755e-05
5.78158e-05
5.2133e-05
4.68106e-05
4.18306e-05
3.71734e-05
3.28185e-05
2.87454e-05
2.49334e-05
2.13628e-05
1.80151e-05
1.4874e-05
1.19259e-05
9.16201e-06
6.57901e-06
4.18081e-06
1.98002e-06
1.92706e-08
-1.60844e-06
-3.00553e-06
-4.73521e-06
-4.37607e-06
0.000609275
0.000595582
0.000566335
0.000535367
0.000508328
0.000486007
0.000467972
0.000453457
0.000441673
0.00043194
0.00042371
0.00041656
0.000410162
0.000404263
0.000398669
0.000393227
0.000387816
0.000382339
0.00037672
0.000370895
0.000364812
0.000358431
0.00035172
0.000344654
0.000337215
0.000329395
0.00032119
0.000312604
0.000303646
0.000294335
0.000284692
0.000274748
0.000264536
0.000254096
0.000243472
0.00023271
0.000221859
0.000210971
0.000200096
0.000189286
0.000178591
0.000168056
0.000157728
0.000147646
0.000137846
0.000128361
0.000119216
0.000110433
0.000102028
9.40111e-05
8.63892e-05
7.91635e-05
7.23311e-05
6.58856e-05
5.98174e-05
5.41138e-05
4.87602e-05
4.374e-05
3.90353e-05
3.46274e-05
3.04974e-05
2.66265e-05
2.29963e-05
1.95899e-05
1.63923e-05
1.3391e-05
1.0577e-05
7.94607e-06
5.49859e-06
3.23918e-06
1.19744e-06
-5.50201e-07
-2.16508e-06
-4.37684e-06
-4.57084e-06
0.000544966
0.000546625
0.000533391
0.000514585
0.000495975
0.000479114
0.000464409
0.000451829
0.000441105
0.000431895
0.00042387
0.000416736
0.000410251
0.00040421
0.000398451
0.000392839
0.000387264
0.000381636
0.000375881
0.000369939
0.000363761
0.000357305
0.000350539
0.00034344
0.000335989
0.000328177
0.00032
0.000311461
0.000302568
0.000293338
0.000283792
0.000273959
0.00026387
0.000253564
0.000243082
0.000232469
0.000221772
0.000211041
0.000200324
0.000189671
0.000179129
0.000168743
0.000158556
0.000148608
0.000138933
0.000129561
0.000120519
0.000111826
0.000103498
9.55454e-05
8.79747e-05
8.07873e-05
7.39809e-05
6.75497e-05
6.14847e-05
5.57745e-05
5.04052e-05
4.53615e-05
4.06268e-05
3.61837e-05
3.20143e-05
2.8101e-05
2.44268e-05
2.09755e-05
1.77327e-05
1.46857e-05
1.18249e-05
9.14385e-06
6.63874e-06
4.30626e-06
2.16517e-06
2.79023e-07
-1.55424e-06
-4.16658e-06
-4.74776e-06
0.000503694
0.000510711
0.000506037
0.000495234
0.00048288
0.00047056
0.000458988
0.000448484
0.000439089
0.000430697
0.000423147
0.000416266
0.00040989
0.000403871
0.000398079
0.000392405
0.000386754
0.000381046
0.000375216
0.000369206
0.000362971
0.00035647
0.000349674
0.000342558
0.000335106
0.000327305
0.000319153
0.000310651
0.000301808
0.000292639
0.000283164
0.000273409
0.000263407
0.000253195
0.000242812
0.000232304
0.000221715
0.000211094
0.000200488
0.000189946
0.000179514
0.000169237
0.000159155
0.000149307
0.000139728
0.000130446
0.000121486
0.000112868
0.000104608
9.67142e-05
8.91933e-05
8.20467e-05
7.52721e-05
6.88638e-05
6.28134e-05
5.71096e-05
5.17396e-05
4.66885e-05
4.19405e-05
3.74791e-05
3.32872e-05
2.9348e-05
2.5645e-05
2.21625e-05
1.8886e-05
1.58025e-05
1.2901e-05
1.01727e-05
7.60953e-06
5.20174e-06
2.95982e-06
9.39054e-07
-1.08921e-06
-4.02158e-06
-4.88596e-06
0.000475829
0.000484208
0.000483908
0.000478148
0.000470244
0.000461499
0.000452641
0.000444112
0.000436109
0.00042867
0.000421757
0.000415289
0.000409169
0.000403299
0.000397586
0.000391944
0.000386297
0.000380578
0.000374729
0.000368698
0.000362444
0.00035593
0.000349127
0.000342012
0.000334567
0.000326782
0.000318652
0.000310179
0.000301371
0.000292241
0.000282809
0.000273102
0.000263151
0.000252991
0.000242665
0.000232214
0.000221686
0.000211127
0.000200585
0.000190108
0.000179742
0.000169531
0.000159516
0.000149735
0.000140222
0.000131005
0.000122108
0.000113551
0.000105348
9.75072e-05
9.00346e-05
8.29311e-05
7.6194e-05
6.98173e-05
6.37924e-05
5.81084e-05
5.27522e-05
4.77096e-05
4.2965e-05
3.85023e-05
3.43049e-05
3.03562e-05
2.66401e-05
2.31409e-05
1.98437e-05
1.67348e-05
1.38017e-05
1.10333e-05
8.41809e-06
5.94112e-06
3.60721e-06
1.46662e-06
-7.25169e-07
-3.90392e-06
-4.9781e-06
0.000456027
0.000464336
0.000466222
0.000463584
0.000458761
0.000452721
0.000446085
0.000439296
0.000432611
0.000426146
0.000419938
0.00041397
0.000408201
0.000402572
0.000397022
0.000391488
0.000385912
0.000380239
0.000374421
0.000368412
0.000362175
0.000355677
0.000348889
0.000341791
0.000334364
0.000326599
0.00031849
0.000310037
0.000301249
0.000292138
0.000282724
0.000273033
0.000263095
0.000252949
0.000242635
0.000232197
0.000221682
0.000211137
0.000200612
0.000190154
0.00017981
0.000169624
0.000159639
0.000149892
0.000140416
0.000131241
0.000122388
0.000113878
0.000105722
9.79295e-05
9.05044e-05
8.34467e-05
7.67529e-05
7.04166e-05
6.44284e-05
5.8777e-05
5.34493e-05
4.84307e-05
4.37057e-05
3.92583e-05
3.5072e-05
3.11302e-05
2.74167e-05
2.39155e-05
2.06114e-05
1.74897e-05
1.45366e-05
1.1739e-05
9.08256e-06
6.54872e-06
4.13846e-06
1.89921e-06
-4.21907e-07
-3.78098e-06
-5.01399e-06
0.000441353
0.000449171
0.000452131
0.000451418
0.000448699
0.000444654
0.000439774
0.000434449
0.000428941
0.000423398
0.000417898
0.000412467
0.0004071
0.000401771
0.000396443
0.000391076
0.000385624
0.000380046
0.000374302
0.000368353
0.000362165
0.000355709
0.000348959
0.000341893
0.000334495
0.000326754
0.000318664
0.000310225
0.000301443
0.000292331
0.000282908
0.000273201
0.000263242
0.000253068
0.000242722
0.00023225
0.000221701
0.000211123
0.000200567
0.000190082
0.000179715
0.000169514
0.000159521
0.000149775
0.000140308
0.000131151
0.000122325
0.000113847
0.000105731
9.79826e-05
9.06049e-05
8.35966e-05
7.6953e-05
7.06662e-05
6.47262e-05
5.91207e-05
5.3836e-05
4.8857e-05
4.4168e-05
3.97524e-05
3.55937e-05
3.16752e-05
2.79801e-05
2.44924e-05
2.11961e-05
1.80757e-05
1.51162e-05
1.2303e-05
9.61958e-06
7.04508e-06
4.57801e-06
2.26394e-06
-1.52599e-07
-3.63274e-06
-4.98751e-06
0.00043019
0.000437444
0.000440906
0.000441376
0.000440082
0.00043749
0.000433968
0.000429841
0.000425345
0.000420637
0.00041581
0.000410916
0.000405972
0.000400976
0.00039591
0.00039075
0.000385464
0.00038002
0.000374386
0.00036853
0.000362421
0.000356033
0.00034934
0.000342323
0.000334964
0.000327252
0.00031918
0.000310747
0.000301958
0.000292826
0.000283369
0.000273614
0.000263595
0.000253352
0.000242929
0.000232375
0.000221742
0.000211082
0.000200446
0.000189886
0.000179452
0.000169193
0.000159153
0.000149374
0.000139889
0.000130727
0.00012191
0.000113454
0.00010537
9.76627e-05
9.03338e-05
8.33797e-05
7.6794e-05
7.05672e-05
6.46876e-05
5.9142e-05
5.39155e-05
4.89921e-05
4.43555e-05
3.99886e-05
3.58744e-05
3.19957e-05
2.83356e-05
2.48773e-05
2.16043e-05
1.85006e-05
1.555e-05
1.27367e-05
1.00429e-05
7.44628e-06
4.94378e-06
2.57951e-06
9.98278e-08
-3.44745e-06
-4.89541e-06
0.000421599
0.000428319
0.000431978
0.000433169
0.000432834
0.000431291
0.000428805
0.000425638
0.000421994
0.000418018
0.000413809
0.000409427
0.000404905
0.000400256
0.000395476
0.000390552
0.000385463
0.000380186
0.000374693
0.000368958
0.000362955
0.000356657
0.000350042
0.000343089
0.000335781
0.000328104
0.00032005
0.000311618
0.00030281
0.000293637
0.000284119
0.000274283
0.000264165
0.000253807
0.000243259
0.000232574
0.000221806
0.000211011
0.000200244
0.000189559
0.000179009
0.000168648
0.000158523
0.000148677
0.000139144
0.000129955
0.000121131
0.000112686
0.000104628
9.69622e-05
8.96852e-05
8.2792e-05
7.62736e-05
7.01184e-05
6.4313e-05
5.88422e-05
5.36898e-05
4.88388e-05
4.42717e-05
3.99708e-05
3.59184e-05
3.20968e-05
2.84884e-05
2.50762e-05
2.1843e-05
1.87721e-05
1.58468e-05
1.30504e-05
1.03643e-05
7.7653e-06
5.24951e-06
2.85936e-06
3.46971e-07
-3.21781e-06
-4.73604e-06
0.000414998
0.000421231
0.00042492
0.000426538
0.000426843
0.000426049
0.000424346
0.000421939
0.000418998
0.000415652
0.000411994
0.000408089
0.000403976
0.000399675
0.000395192
0.000390522
0.000385653
0.000380567
0.000375241
0.000369654
0.00036378
0.000357596
0.000351079
0.000344206
0.00033696
0.000329326
0.000321293
0.000312856
0.000304017
0.000294785
0.000285179
0.000275227
0.000264967
0.000254446
0.000243721
0.000232849
0.000221892
0.000210908
0.000199955
0.000189092
0.000178376
0.000167865
0.000157612
0.000147663
0.000138055
0.000128818
0.000119971
0.000111528
0.000103494
9.58697e-05
8.86503e-05
8.18267e-05
7.53871e-05
6.93172e-05
6.36011e-05
5.82216e-05
5.31605e-05
4.83996e-05
4.392e-05
3.97031e-05
3.57304e-05
3.19835e-05
2.84444e-05
2.50954e-05
2.19191e-05
1.88981e-05
1.60153e-05
1.32535e-05
1.05937e-05
8.01273e-06
5.50579e-06
3.11337e-06
5.96793e-07
-2.93929e-06
-4.50873e-06
0.000410001
0.000415787
0.000419406
0.000421261
0.000421984
0.000421719
0.000420601
0.000418789
0.000416422
0.000413611
0.000410439
0.000406969
0.000403241
0.00039928
0.000395098
0.000390694
0.000386062
0.000381187
0.000376052
0.000370635
0.000364914
0.000358866
0.000352466
0.000345691
0.000338522
0.00033094
0.000322932
0.000314488
0.000305608
0.000296298
0.000286576
0.000276469
0.000266021
0.000255284
0.000244324
0.000233207
0.000222002
0.00021077
0.000199574
0.000188474
0.000177536
0.000166823
0.000156397
0.000146308
0.000136595
0.000127288
0.000118406
0.000109958
0.000101948
9.43701e-05
8.72167e-05
8.04746e-05
7.4128e-05
6.81595e-05
6.255e-05
5.72798e-05
5.23288e-05
4.76768e-05
4.33037e-05
3.91896e-05
3.53151e-05
3.16612e-05
2.82094e-05
2.49413e-05
2.18394e-05
1.88858e-05
1.60632e-05
1.33543e-05
1.07399e-05
8.19714e-06
5.72079e-06
3.3487e-06
8.54684e-07
-2.60947e-06
-4.21394e-06
0.000406339
0.000411704
0.000415191
0.000417155
0.000418139
0.000418241
0.000417554
0.000416204
0.000414302
0.000411939
0.000409191
0.000406113
0.000402745
0.000399112
0.000395228
0.000391097
0.000386714
0.000382067
0.000377142
0.000371918
0.000366373
0.000360483
0.000354223
0.000347567
0.000340492
0.000332975
0.000324999
0.00031655
0.000307621
0.000298215
0.000288347
0.000278045
0.000267356
0.000256342
0.000245081
0.000233654
0.000222136
0.000210595
0.000199093
0.000187694
0.000176469
0.000165497
0.000154847
0.000144578
0.000134731
0.000125335
0.000116406
0.000107951
9.99667e-05
9.24443e-05
8.53693e-05
7.87239e-05
7.24879e-05
6.66396e-05
6.11565e-05
5.6016e-05
5.11954e-05
4.66727e-05
4.24262e-05
3.84346e-05
3.46777e-05
3.11358e-05
2.77895e-05
2.46206e-05
2.16108e-05
1.87424e-05
1.5998e-05
1.33602e-05
1.08101e-05
8.32553e-06
5.90081e-06
3.57055e-06
1.12412e-06
-2.22754e-06
-3.85291e-06
0.000403812
0.00040877
0.000412081
0.000414066
0.000415199
0.000415545
0.000415172
0.000414176
0.000412646
0.000410659
0.000408278
0.000405552
0.000402517
0.000399197
0.000395608
0.000391753
0.000387629
0.000383226
0.00037853
0.000373521
0.000368175
0.000362468
0.000356372
0.000349858
0.000342897
0.000335464
0.000327532
0.000319083
0.000310102
0.000300586
0.000290542
0.00028
0.000269009
0.000257645
0.000246005
0.000234193
0.000222297
0.000210382
0.000198507
0.000186737
0.000175153
0.000163852
0.000152923
0.000142431
0.00013242
0.000122917
0.000113934
0.000105473
9.75231e-05
9.00692e-05
8.30899e-05
7.65611e-05
7.0457e-05
6.47512e-05
5.94172e-05
5.4429e-05
4.97614e-05
4.53899e-05
4.12913e-05
3.7443e-05
3.38238e-05
3.04131e-05
2.71914e-05
2.41399e-05
2.12403e-05
1.8475e-05
1.58265e-05
1.32779e-05
1.08107e-05
8.40368e-06
6.05074e-06
3.7826e-06
1.40714e-06
-1.79405e-06
-3.42787e-06
0.000402268
0.000406822
0.000409924
0.000411865
0.000413062
0.000413562
0.000413411
0.000412684
0.000411452
0.000409777
0.000407713
0.000405302
0.000402575
0.000399555
0.000396254
0.000392678
0.000388822
0.000384678
0.000380229
0.000375457
0.000370337
0.000364839
0.000358935
0.00035259
0.000345772
0.000338445
0.000330578
0.000322141
0.000313111
0.000303473
0.000293226
0.000282392
0.000271028
0.000259223
0.000247109
0.000234829
0.000222482
0.000210129
0.000197814
0.000185593
0.000173559
0.000161846
0.000150572
0.000139812
0.000129609
0.000119984
0.000110945
0.000102484
9.45837e-05
8.72181e-05
8.03577e-05
7.39707e-05
6.80246e-05
6.24876e-05
5.73287e-05
5.25183e-05
4.80281e-05
4.38315e-05
3.99034e-05
3.62201e-05
3.27592e-05
2.94998e-05
2.64218e-05
2.35062e-05
2.07349e-05
1.80903e-05
1.55555e-05
1.31137e-05
1.07473e-05
8.43641e-06
6.17436e-06
3.98738e-06
1.70465e-06
-1.31062e-06
-2.94173e-06
0.000401579
0.000405726
0.000408593
0.000410441
0.000411641
0.000412224
0.000412224
0.000411697
0.000410701
0.000409287
0.000407497
0.000405368
0.000402927
0.000400193
0.000397177
0.000393881
0.000390303
0.000386432
0.000382251
0.00037774
0.000372872
0.000367615
0.000361935
0.000355794
0.00034915
0.000341962
0.000334188
0.000325786
0.00031672
0.000306959
0.000296483
0.000285304
0.000273477
0.000261113
0.000248399
0.000235552
0.000222687
0.00020984
0.000197019
0.000184255
0.000171654
0.000159422
0.000147726
0.00013665
0.000126228
0.000116473
0.000107382
9.89381e-05
9.11103e-05
8.38611e-05
7.71501e-05
7.09364e-05
6.51798e-05
5.98424e-05
5.48882e-05
5.02836e-05
4.59977e-05
4.20014e-05
3.82679e-05
3.47722e-05
3.14912e-05
2.84033e-05
2.54883e-05
2.27271e-05
2.0102e-05
1.75955e-05
1.51913e-05
1.28734e-05
1.06251e-05
8.42786e-06
6.27462e-06
4.18651e-06
2.01661e-06
-7.79976e-07
-2.39834e-06
0.000401637
0.00040537
0.000407979
0.000409697
0.000410852
0.000411465
0.000411558
0.000411178
0.000410369
0.000409171
0.000407621
0.000405748
0.000403573
0.000401114
0.000398378
0.000395367
0.000392076
0.000388493
0.000384602
0.000380378
0.000375793
0.000370812
0.000365395
0.000359497
0.000353071
0.000346064
0.000338423
0.000330092
0.000321019
0.000311148
0.000300428
0.000288842
0.000276442
0.000263355
0.000249864
0.000236334
0.000222898
0.000209524
0.000196149
0.000182736
0.000169401
0.0001565
0.000144291
0.000132853
0.000122194
0.000112308
0.000103181
9.47804e-05
8.70597e-05
7.99652e-05
7.34433e-05
6.74419e-05
6.19124e-05
5.68101e-05
5.2094e-05
4.77266e-05
4.3674e-05
3.99051e-05
3.63913e-05
3.31068e-05
3.00276e-05
2.71318e-05
2.43991e-05
2.18108e-05
1.93492e-05
1.69978e-05
1.47407e-05
1.25629e-05
1.04489e-05
8.38165e-06
6.35385e-06
4.38091e-06
2.34224e-06
-2.05672e-07
-1.80217e-06
0.000402346
0.000405656
0.000407987
0.000409546
0.000410618
0.000411219
0.000411363
0.000411086
0.000410424
0.000409408
0.000408068
0.000406427
0.000404504
0.00040231
0.000399853
0.000397131
0.000394138
0.000390862
0.000387283
0.000383376
0.000379109
0.000374443
0.000369333
0.000363729
0.000357572
0.000350801
0.000343348
0.000335143
0.000326113
0.000316174
0.000305214
0.000293158
0.000280046
0.00026599
0.000251446
0.000237103
0.000223083
0.000209207
0.000195271
0.000181089
0.000166758
0.000152966
0.000140139
0.000128304
0.000117403
0.000107397
9.82628e-05
8.9949e-05
8.23848e-05
7.54964e-05
6.92137e-05
6.34722e-05
5.8214e-05
5.33875e-05
4.89467e-05
4.48507e-05
4.10628e-05
3.75498e-05
3.42822e-05
3.1233e-05
2.83779e-05
2.56948e-05
2.31637e-05
2.07661e-05
1.84851e-05
1.63048e-05
1.42104e-05
1.21879e-05
1.02232e-05
8.30108e-06
6.41389e-06
4.5709e-06
2.68007e-06
4.07827e-07
-1.15865e-06
0.000403619
0.000406495
0.000408532
0.000409909
0.000410869
0.000411425
0.000411585
0.000411378
0.00041083
0.000409969
0.000408815
0.000407389
0.000405704
0.00040377
0.00040159
0.000399164
0.000396483
0.000393532
0.000390292
0.000386734
0.000382823
0.000378518
0.000373767
0.000368512
0.000362689
0.000356222
0.00034903
0.000341027
0.000332126
0.000322209
0.000311062
0.000298493
0.000284528
0.000269127
0.000252994
0.000237682
0.000223173
0.000208945
0.000194552
0.000179464
0.000163612
0.00014858
0.000135056
0.000122838
0.000111728
0.000101633
9.25387e-05
8.43748e-05
7.70358e-05
7.04207e-05
6.444e-05
5.90154e-05
5.40797e-05
4.95747e-05
4.54503e-05
4.16624e-05
3.81722e-05
3.49453e-05
3.19509e-05
2.91617e-05
2.65531e-05
2.41032e-05
2.17924e-05
1.96029e-05
1.75186e-05
1.55247e-05
1.36076e-05
1.17543e-05
9.95254e-06
8.18923e-06
6.45624e-06
4.75638e-06
3.02811e-06
1.05533e-06
-4.73716e-07
0.000405372
0.000407805
0.000409534
0.00041071
0.000411537
0.000412023
0.000412173
0.000412008
0.00041155
0.00041082
0.000409834
0.000408607
0.000407152
0.000405473
0.000403574
0.000401451
0.000399095
0.000396491
0.000393617
0.000390443
0.000386932
0.000383038
0.000378706
0.000373869
0.000368452
0.000362373
0.000355533
0.000347832
0.000339188
0.000329479
0.000318304
0.000305238
0.000290331
0.000273051
0.000254177
0.00023769
0.000223025
0.000208863
0.000194359
0.000178198
0.000159663
0.000142885
0.000128691
0.000116234
0.000105023
9.48922e-05
8.59071e-05
7.7984e-05
7.09635e-05
6.4708e-05
5.91061e-05
5.40652e-05
4.95096e-05
4.53764e-05
4.16124e-05
3.81717e-05
3.5014e-05
3.2104e-05
2.94105e-05
2.6906e-05
2.45662e-05
2.23696e-05
2.02972e-05
1.83324e-05
1.64599e-05
1.46665e-05
1.29397e-05
1.12684e-05
9.64172e-06
8.04915e-06
6.4822e-06
4.93692e-06
3.3839e-06
1.73087e-06
2.45764e-07
0.000407525
0.000409507
0.000410919
0.00041188
0.000412557
0.000412953
0.000413072
0.000412929
0.000412542
0.000411925
0.000411092
0.000410054
0.000408821
0.000407396
0.00040578
0.000403969
0.000401954
0.000399719
0.000397241
0.000394489
0.000391425
0.000388
0.000384152
0.000379808
0.000374885
0.000369288
0.000362905
0.000355616
0.000347403
0.000338236
0.00032737
0.000313738
0.000297582
0.000277341
0.000254327
0.000236564
0.000222439
0.000209127
0.000195225
0.000177925
0.000155288
0.000135718
0.000120804
0.000108354
9.71763e-05
8.70337e-05
7.82478e-05
7.06976e-05
6.41222e-05
5.83362e-05
5.32049e-05
4.86237e-05
4.45116e-05
4.08038e-05
3.74464e-05
3.4393e-05
3.16032e-05
2.90415e-05
2.66767e-05
2.44816e-05
2.24324e-05
2.05084e-05
1.86917e-05
1.69669e-05
1.53202e-05
1.37399e-05
1.22152e-05
1.07367e-05
9.29557e-06
7.88391e-06
6.49297e-06
5.11181e-06
3.74459e-06
2.4279e-06
9.92477e-07
0.000410001
0.000411527
0.000412614
0.000413351
0.000413865
0.000414158
0.00041423
0.000414094
0.000413762
0.000413245
0.000412553
0.000411696
0.000410679
0.000409507
0.000408179
0.000406691
0.000405032
0.000403189
0.000401138
0.000398849
0.000396282
0.000393387
0.000390097
0.000386333
0.000382
0.000376992
0.000371173
0.000364387
0.000356762
0.00034865
0.00033867
0.000324125
0.000306667
0.000279012
0.000251725
0.00023357
0.000221262
0.000209797
0.000197757
0.000180141
0.000153374
0.00012657
0.000111307
9.93256e-05
8.81628e-05
7.78581e-05
6.93924e-05
6.24282e-05
5.64767e-05
5.12984e-05
4.67445e-05
4.27059e-05
3.91034e-05
3.58757e-05
3.29714e-05
3.03458e-05
2.79595e-05
2.57773e-05
2.37686e-05
2.19069e-05
2.01692e-05
1.85362e-05
1.69912e-05
1.55204e-05
1.41118e-05
1.27556e-05
1.14429e-05
1.01663e-05
8.91932e-06
7.69671e-06
6.48968e-06
5.28023e-06
4.10701e-06
3.13924e-06
1.75829e-06
0.000412724
0.000413793
0.00041455
0.000415057
0.000415401
0.00041558
0.000415595
0.000415454
0.000415165
0.000414737
0.000414178
0.000413495
0.000412692
0.000411773
0.000410737
0.000409581
0.000408295
0.000406866
0.000405273
0.000403488
0.000401471
0.000399173
0.000396524
0.000393437
0.000389804
0.000385517
0.000380395
0.000374135
0.000367129
0.000360922
0.000353361
0.000338114
0.000330192
0.000292378
0.000235382
0.000224358
0.000218794
0.000211505
0.00020599
0.000196769
0.000139383
0.000102205
9.74245e-05
8.81024e-05
7.8186e-05
6.72536e-05
5.9187e-05
5.31214e-05
4.80291e-05
4.36205e-05
3.97578e-05
3.63441e-05
3.33148e-05
3.06193e-05
2.8213e-05
2.60547e-05
2.41065e-05
2.23345e-05
2.07086e-05
1.92034e-05
1.77971e-05
1.64719e-05
1.5213e-05
1.40084e-05
1.28485e-05
1.17254e-05
1.06327e-05
9.56506e-06
8.51855e-06
7.49098e-06
6.47355e-06
5.4412e-06
4.46778e-06
3.85725e-06
2.53474e-06
0.000415619
0.000416233
0.000416661
0.000416936
0.000417104
0.000417164
0.000417114
0.00041696
0.000416706
0.00041636
0.000415926
0.000415411
0.00041482
0.000414154
0.000413415
0.000412599
0.0004117
0.000410707
0.000409602
0.000408361
0.000406948
0.000405315
0.000403397
0.000401095
0.000398288
0.000394874
0.000390587
0.000384636
0.000377939
0.000376497
0.000377155
0.000360726
0.000374081
0.000423637
0.000153287
0.000197502
0.000212695
0.00021714
0.0002301
0.000287406
4.92115e-06
5.50717e-05
7.35583e-05
6.98517e-05
6.91744e-05
5.56086e-05
4.75783e-05
4.27868e-05
3.88337e-05
3.53709e-05
3.2308e-05
2.95908e-05
2.71886e-05
2.50707e-05
2.3203e-05
2.15491e-05
2.00725e-05
1.87402e-05
1.75227e-05
1.63958e-05
1.53391e-05
1.43369e-05
1.33765e-05
1.24483e-05
1.15453e-05
1.06622e-05
9.79513e-06
8.94125e-06
8.09933e-06
7.27042e-06
6.44591e-06
5.59378e-06
4.8233e-06
4.57387e-06
3.31269e-06
0.000418613
0.000418778
0.000418882
0.000418925
0.000418918
0.000418855
0.000418736
0.000418563
0.000418339
0.000418067
0.000417754
0.000417403
0.00041702
0.000416607
0.000416166
0.000415698
0.000415198
0.000414659
0.000414069
0.000413408
0.00041265
0.000411754
0.000410659
0.000409256
0.000407382
0.000404939
0.000401396
0.000394333
0.000385215
0.000394966
0.000417222
0.00041886
0.000229762
0.000328939
0.00014062
0.000222273
0.000258744
0.000276222
0.000286508
0.000344511
0.000144054
0.000191348
2.8513e-05
6.10564e-05
6.211e-05
3.95224e-05
3.3128e-05
3.10713e-05
2.88962e-05
2.66502e-05
2.44897e-05
2.2517e-05
2.07777e-05
1.92716e-05
1.79774e-05
1.68621e-05
1.58893e-05
1.50252e-05
1.42406e-05
1.35122e-05
1.28216e-05
1.21552e-05
1.15034e-05
1.08594e-05
1.02191e-05
9.58027e-06
8.94188e-06
8.30395e-06
7.66819e-06
7.03903e-06
6.40823e-06
5.73702e-06
5.16994e-06
5.28075e-06
4.08284e-06
0.000421633
0.000421362
0.000421149
0.000420967
0.000420785
0.0004206
0.000420411
0.000420216
0.000420016
0.000419815
0.000419617
0.000419426
0.000419247
0.000419085
0.000418944
0.000418826
0.000418733
0.000418661
0.000418606
0.000418558
0.0004185
0.000418413
0.000418257
0.000417921
0.000417209
0.000416128
0.000413763
0.000403566
0.000382779
0.000385521
0.000419851
0.000283181
0.000253032
0.00143992
0.000970802
0.000772491
0.000682036
0.000663691
0.000719121
0.00088132
0.00116955
0.0012814
0.000251845
0.000204291
1.36904e-05
6.44086e-06
1.34309e-05
1.77612e-05
1.85397e-05
1.77849e-05
1.64935e-05
1.52249e-05
1.41437e-05
1.32658e-05
1.25731e-05
1.20293e-05
1.15922e-05
1.12244e-05
1.0896e-05
1.05845e-05
1.0274e-05
9.95387e-06
9.61784e-06
9.2628e-06
8.88809e-06
8.49485e-06
8.08544e-06
7.66292e-06
7.23215e-06
6.80116e-06
6.3622e-06
5.87009e-06
5.504e-06
5.96934e-06
4.83545e-06
0.00042461
0.000423921
0.000423404
0.000423003
0.000422653
0.000422349
0.00042209
0.000421871
0.000421693
0.000421559
0.00042147
0.000421433
0.000421454
0.000421539
0.000421694
0.000421927
0.000422243
0.000422645
0.000423136
0.000423719
0.000424396
0.000425179
0.000426098
0.00042714
0.000428344
0.000430754
0.000434361
0.000426612
0.00041103
0.000276548
0.000263798
0.00146027
0.000951348
0.00109668
0.000976178
0.000866194
0.000802849
0.000789281
0.000827433
0.000918139
0.00103494
0.0010711
0.000961908
0.00126296
0.000196943
-2.03394e-06
1.87235e-06
7.11856e-06
9.58965e-06
9.62441e-06
8.64405e-06
7.83071e-06
7.33712e-06
7.08628e-06
7.02249e-06
7.08606e-06
7.21911e-06
7.37664e-06
7.5269e-06
7.64882e-06
7.72964e-06
7.76282e-06
7.7464e-06
7.6816e-06
7.57194e-06
7.42247e-06
7.23918e-06
7.02852e-06
6.79872e-06
6.56144e-06
6.30971e-06
5.99226e-06
5.82184e-06
6.63105e-06
5.56085e-06
0.000427477
0.000426392
0.000425587
0.000424979
0.00042447
0.000424052
0.000423725
0.000423483
0.000423325
0.000423253
0.000423269
0.00042338
0.000423594
0.000423919
0.000424365
0.000424942
0.000425662
0.000426533
0.000427568
0.000428776
0.000430174
0.000431799
0.000433754
0.000436228
0.000439646
0.000446826
0.000461323
0.000445534
0.000391518
0.000480698
0.000724343
0.00104826
0.00100674
0.00101929
0.000971064
0.000913268
0.000873891
0.000863153
0.000883191
0.00092886
0.00098097
0.00100526
0.00100437
0.00109034
0.00114605
0.00050584
2.8933e-07
1.0409e-06
2.82238e-06
2.54819e-06
1.01112e-06
3.22778e-07
3.43125e-07
7.33002e-07
1.34452e-06
2.06628e-06
2.81202e-06
3.52657e-06
4.17731e-06
4.74637e-06
5.22603e-06
5.61543e-06
5.91819e-06
6.14088e-06
6.29187e-06
6.38065e-06
6.41723e-06
6.41168e-06
6.37574e-06
6.32484e-06
6.25285e-06
6.10296e-06
6.11992e-06
7.25733e-06
6.24923e-06
0.00043017
0.000428717
0.000427645
0.000426845
0.000426187
0.000425663
0.000425273
0.000425009
0.000424869
0.000424855
0.00042497
0.000425221
0.000425618
0.000426173
0.000426898
0.00042781
0.000428923
0.000430253
0.000431815
0.000433621
0.000435675
0.00043797
0.00044057
0.000443649
0.000446491
0.00044808
0.000466175
0.000557754
0.00131352
0.000942179
0.000922982
0.00100168
0.00100808
0.0010027
0.000975541
0.000941931
0.000916296
0.000906248
0.000913317
0.000933137
0.000954816
0.00096459
0.000959985
0.000947575
0.00085163
0.000507163
-0.000213352
-1.3851e-07
-1.18958e-06
-3.18709e-06
-6.83948e-06
-7.62541e-06
-6.98694e-06
-5.84855e-06
-4.45898e-06
-2.99567e-06
-1.57995e-06
-2.72678e-07
8.98727e-07
1.92448e-06
2.80531e-06
3.54845e-06
4.16482e-06
4.66741e-06
5.07025e-06
5.38776e-06
5.63429e-06
5.82371e-06
5.97139e-06
6.09648e-06
6.19392e-06
6.20179e-06
6.39491e-06
7.83991e-06
6.89115e-06
0.00043263
0.000430843
0.000429528
0.000428553
0.00042776
0.000427139
0.000426691
0.000426407
0.000426285
0.000426324
0.00042653
0.000426912
0.000427481
0.000428251
0.000429241
0.000430471
0.000431962
0.000433736
0.000435815
0.000438212
0.000440912
0.000443847
0.000446974
0.00045022
0.000450927
0.000442165
0.000445032
0.000657943
0.00109211
0.00105243
0.00102375
0.0010274
0.00102123
0.00100791
0.000986484
0.000962626
0.000943118
0.000932226
0.000930691
0.000935553
0.000940566
0.000938297
0.000923403
0.000888349
0.000805731
0.000652604
0.000513339
-0.000101467
-2.1056e-06
-8.10367e-06
-1.76119e-05
-1.7463e-05
-1.5164e-05
-1.27941e-05
-1.03854e-05
-8.04704e-06
-5.88859e-06
-3.95265e-06
-2.24613e-06
-7.618e-07
5.14826e-07
1.60208e-06
2.52006e-06
3.28936e-06
3.93029e-06
4.46265e-06
4.9053e-06
5.27606e-06
5.59389e-06
5.88164e-06
6.1353e-06
6.28852e-06
6.64368e-06
8.37086e-06
7.47738e-06
0.000434804
0.000432721
0.00043119
0.000430061
0.000429147
0.000428442
0.000427942
0.000427641
0.000427534
0.000427622
0.000427911
0.000428411
0.000429136
0.000430105
0.000431339
0.000432865
0.000434713
0.000436915
0.000439506
0.000442515
0.000445953
0.000449832
0.000454301
0.000459781
0.000464327
0.00044638
0.000528964
0.00159104
0.0012743
0.00115175
0.0010922
0.00106294
0.00104154
0.00102123
0.000999869
0.000978979
0.000961324
0.000948848
0.000941667
0.000937816
0.000933597
0.000924629
0.00090698
0.000876684
0.000830339
0.000784129
0.000821536
0.00117009
-0.000102903
-1.79274e-05
-3.57439e-05
-3.01645e-05
-2.4413e-05
-2.00189e-05
-1.62775e-05
-1.29476e-05
-9.99876e-06
-7.41868e-06
-5.17965e-06
-3.24875e-06
-1.59313e-06
-1.80698e-07
1.01922e-06
2.03559e-06
2.89548e-06
3.62416e-06
4.24513e-06
4.78005e-06
5.25141e-06
5.68548e-06
6.07945e-06
6.36306e-06
6.86339e-06
8.84278e-06
7.99941e-06
0.000436642
0.000434306
0.000432592
0.00043133
0.000430314
0.000429535
0.000428992
0.000428676
0.000428583
0.000428714
0.000429075
0.000429679
0.000430542
0.000431685
0.000433137
0.00043493
0.000437104
0.000439702
0.000442777
0.000446374
0.000450541
0.000455425
0.00046102
0.000464965
0.000469722
0.000532807
0.00090111
0.00129634
0.00126235
0.00118811
0.00113039
0.00109063
0.00106078
0.00103562
0.00101279
0.000992101
0.000974355
0.000960173
0.000949312
0.000940444
0.000931377
0.00091964
0.000903202
0.000881069
0.000854781
0.000832
0.000818532
0.000733007
-7.18817e-06
-0.000109054
-4.05383e-05
-3.65647e-05
-3.25539e-05
-2.67082e-05
-2.1707e-05
-1.7447e-05
-1.37462e-05
-1.05529e-05
-7.81249e-06