/*--------------------------------*- C++ -*----------------------------------*\
  =========                 |
  \\      /  F ield         | OpenFOAM: The Open Source CFD Toolbox
   \\    /   O peration     | Website:  https://openfoam.org
    \\  /    A nd           | Version:  7
     \\/     M anipulation  |
\*---------------------------------------------------------------------------*/
FoamFile
{
    version     2.0;
    format      ascii;
    class       surfaceScalarField;
    location    "10";
    object      phi;
}
// * * * * * * * * * * * * * * * * * * * * * * * * * * * * * * * * * * * * * //

dimensions      [0 3 -1 0 0 0 0];

internalField   nonuniform List<scalar> 
11100
(
1.93063e-13
7.36036e-14
1.32535e-13
6.05284e-14
9.56193e-14
3.69154e-14
7.29483e-14
2.2671e-14
5.85583e-14
1.439e-14
4.91193e-14
9.43908e-15
4.27174e-14
6.4019e-15
3.82559e-14
4.46151e-15
3.50993e-14
3.1566e-15
3.28654e-14
2.23386e-15
3.13129e-14
1.55248e-15
3.02818e-14
1.03113e-15
2.96611e-14
6.20676e-16
2.9371e-14
2.90135e-16
2.93517e-14
1.92633e-17
2.95573e-14
-2.05568e-16
2.9951e-14
-3.93713e-16
3.05027e-14
-5.51668e-16
3.11866e-14
-6.83937e-16
3.19802e-14
-7.93631e-16
3.28631e-14
-8.82838e-16
3.3816e-14
-9.52933e-16
3.48208e-14
-1.00476e-15
3.58596e-14
-1.03883e-15
3.6915e-14
-1.05543e-15
3.79698e-14
-1.05476e-15
3.90068e-14
-1.03702e-15
4.00093e-14
-1.00249e-15
4.09609e-14
-9.51617e-16
4.1846e-14
-8.85085e-16
4.26498e-14
-8.03808e-16
4.33588e-14
-7.08998e-16
4.39609e-14
-6.02121e-16
4.44458e-14
-4.84919e-16
4.48052e-14
-3.59329e-16
4.50326e-14
-2.27471e-16
4.51242e-14
-9.15666e-17
4.50781e-14
4.61018e-17
4.48948e-14
1.8326e-16
4.45772e-14
3.17691e-16
4.41299e-14
4.47283e-16
4.35598e-14
5.70098e-16
4.28754e-14
6.84395e-16
4.20867e-14
7.88705e-16
4.12048e-14
8.81828e-16
4.02419e-14
9.62896e-16
3.92106e-14
1.03133e-15
3.81237e-14
1.08691e-15
3.6994e-14
1.12965e-15
3.58342e-14
1.1599e-15
3.4656e-14
1.17817e-15
3.34708e-14
1.18522e-15
3.22888e-14
1.18194e-15
3.11195e-14
1.16934e-15
2.9971e-14
1.1485e-15
2.88504e-14
1.12057e-15
2.77637e-14
1.0867e-15
2.67156e-14
1.04809e-15
2.57097e-14
1.0059e-15
2.47484e-14
9.61318e-16
2.38329e-14
9.15515e-16
2.29632e-14
8.69708e-16
2.21381e-14
8.25123e-16
2.1355e-14
7.83106e-16
2.06098e-14
7.45117e-16
1.98969e-14
7.129e-16
1.92084e-14
6.88574e-16
1.85334e-14
6.74995e-16
1.78571e-14
6.76273e-16
1.71583e-14
6.98761e-16
1.64065e-14
7.51861e-16
1.55553e-14
8.5116e-16
1.45216e-14
1.0337e-15
1.31581e-14
1.36346e-15
1.76818e-15
2.69384e-13
7.08867e-14
2.40863e-13
8.90492e-14
2.05606e-13
7.2172e-14
1.74753e-13
5.35242e-14
1.5036e-13
3.87832e-14
1.31785e-13
2.8014e-14
1.1784e-13
2.03471e-14
1.0744e-13
1.48611e-14
9.97435e-14
1.08531e-14
9.41281e-14
7.84923e-15
9.01406e-14
5.54001e-15
8.74487e-14
3.72301e-15
8.58054e-14
2.26396e-15
8.50233e-14
1.07226e-15
8.49569e-14
8.5635e-17
8.54907e-14
-7.39368e-16
8.65304e-14
-1.43338e-15
8.79968e-14
-2.01807e-15
8.98216e-14
-2.50876e-15
9.19441e-14
-2.91612e-15
9.43087e-14
-3.24746e-15
9.68635e-14
-3.50764e-15
9.95584e-14
-3.69975e-15
1.02345e-13
-3.82571e-15
1.05177e-13
-3.88671e-15
1.08005e-13
-3.88363e-15
1.10786e-13
-3.81736e-15
1.13472e-13
-3.68913e-15
1.16022e-13
-3.50076e-15
1.18391e-13
-3.25484e-15
1.20542e-13
-2.95486e-15
1.22439e-13
-2.60529e-15
1.24048e-13
-2.21157e-15
1.25343e-13
-1.78003e-15
1.26302e-13
-1.31776e-15
1.26907e-13
-8.32454e-16
1.27147e-13
-3.3219e-16
1.27019e-13
1.74758e-16
1.26522e-13
6.80127e-16
1.25664e-13
1.17586e-15
1.24457e-13
1.6543e-15
1.22918e-13
2.10838e-15
1.21071e-13
2.53177e-15
1.18941e-13
2.91907e-15
1.16556e-13
3.2659e-15
1.1395e-13
3.56898e-15
1.11156e-13
3.8262e-15
1.08206e-13
4.03653e-15
1.05136e-13
4.20005e-15
1.01978e-13
4.31778e-15
9.87642e-14
4.39159e-15
9.55254e-14
4.42407e-15
9.22889e-14
4.41839e-15
8.90801e-14
4.37813e-15
8.59214e-14
4.30723e-15
8.28322e-14
4.20979e-15
7.98288e-14
4.09008e-15
7.69245e-14
3.95239e-15
7.41293e-14
3.80107e-15
7.14502e-14
3.64044e-15
6.88908e-14
3.47487e-15
6.64518e-14
3.30877e-15
6.41302e-14
3.14669e-15
6.19199e-14
2.99341e-15
5.98109e-14
2.85416e-15
5.7789e-14
2.73482e-15
5.58352e-14
2.64235e-15
5.39249e-14
2.58528e-15
5.20265e-14
2.57471e-15
5.00999e-14
2.62534e-15
4.80955e-14
2.75619e-15
4.59546e-14
2.99213e-15
4.36182e-14
3.37006e-15
4.10725e-14
3.90919e-15
4.4245e-15
2.79714e-13
5.78395e-14
2.75796e-13
9.29671e-14
2.57745e-13
9.0223e-14
2.35104e-13
7.61651e-14
2.13153e-13
6.07336e-14
1.94016e-13
4.71519e-14
1.78238e-13
3.61242e-14
1.65679e-13
2.74207e-14
1.55951e-13
2.0581e-14
1.4863e-13
1.51699e-14
1.4333e-13
1.08398e-14
1.39724e-13
7.32918e-15
1.37542e-13
4.44616e-15
1.36563e-13
2.05108e-15
1.36607e-13
4.24166e-17
1.37521e-13
-1.65374e-15
1.39179e-13
-3.09115e-15
1.41469e-13
-4.30883e-15
1.44295e-13
-5.33475e-15
1.47568e-13
-6.18874e-15
1.51205e-13
-6.88446e-15
1.55128e-13
-7.43107e-15
1.59263e-13
-7.83444e-15
1.63536e-13
-8.09824e-15
1.67874e-13
-8.22478e-15
1.72206e-13
-8.21588e-15
1.76462e-13
-8.07344e-15
1.80573e-13
-7.80015e-15
1.84472e-13
-7.39991e-15
1.88096e-13
-6.87826e-15
1.91383e-13
-6.24263e-15
1.94281e-13
-5.5025e-15
1.96738e-13
-4.66934e-15
1.98715e-13
-3.75649e-15
2.00176e-13
-2.77886e-15
2.01096e-13
-1.75259e-15
2.01458e-13
-6.9461e-16
2.01256e-13
3.77728e-16
2.00489e-13
1.44712e-15
1.99168e-13
2.49667e-15
1.97312e-13
3.51034e-15
1.94947e-13
4.47325e-15
1.92106e-13
5.37214e-15
1.8883e-13
6.19559e-15
1.85161e-13
6.93435e-15
1.81149e-13
7.58146e-15
1.76843e-13
8.13234e-15
1.72295e-13
8.58477e-15
1.67556e-13
8.93872e-15
1.62677e-13
9.19622e-15
1.57708e-13
9.36107e-15
1.52693e-13
9.43858e-15
1.47677e-13
9.43526e-15
1.42696e-13
9.3586e-15
1.37787e-13
9.21672e-15
1.32978e-13
9.01826e-15
1.28296e-13
8.77209e-15
1.23761e-13
8.48726e-15
1.1939e-13
8.17284e-15
1.15192e-13
7.83796e-15
1.11175e-13
7.49171e-15
1.07341e-13
7.14331e-15
1.03685e-13
6.80213e-15
1.00201e-13
6.47792e-15
9.68738e-14
6.18101e-15
9.36859e-14
5.92271e-15
9.06127e-14
5.71563e-15
8.76236e-14
5.57434e-15
8.46825e-14
5.51579e-15
8.17482e-14
5.55968e-15
7.87772e-14
5.72713e-15
7.57313e-14
6.03808e-15
7.25951e-14
6.50629e-15
6.94083e-14
7.09599e-15
7.57301e-15
2.78621e-13
4.58848e-14
2.84767e-13
8.68212e-14
2.798e-13
9.51908e-14
2.67706e-13
8.82588e-14
2.52718e-13
7.57218e-14
2.37609e-13
6.22602e-14
2.23881e-13
4.98531e-14
2.12182e-13
3.91196e-14
2.02681e-13
3.00814e-14
1.95308e-13
2.25434e-14
1.89887e-13
1.62607e-14
1.86212e-13
1.10037e-14
1.84079e-13
6.57921e-15
1.83298e-13
2.83248e-15
1.83697e-13
-3.5718e-16
1.85126e-13
-3.08228e-15
1.87448e-13
-5.41276e-15
1.9054e-13
-7.4008e-15
1.94289e-13
-9.0846e-15
1.98592e-13
-1.04915e-14
2.03348e-13
-1.16406e-14
2.08462e-13
-1.25446e-14
2.13839e-13
-1.32114e-14
2.19387e-13
-1.36461e-14
2.25014e-13
-1.38518e-14
2.30629e-13
-1.38309e-14
2.36142e-13
-1.35865e-14
2.41464e-13
-1.31228e-14
2.46511e-13
-1.24462e-14
2.51198e-13
-1.1566e-14
2.5545e-13
-1.04946e-14
2.59196e-13
-9.24798e-15
2.62372e-13
-7.8453e-15
2.64924e-13
-6.30893e-15
2.66809e-13
-4.66387e-15
2.67994e-13
-2.93711e-15
2.68456e-13
-1.15698e-15
2.68186e-13
6.47534e-16
2.67186e-13
2.44753e-15
2.65468e-13
4.21479e-15
2.63056e-13
5.92247e-15
2.59983e-13
7.54571e-15
2.56293e-13
9.06222e-15
2.52036e-13
1.04529e-14
2.47268e-13
1.17021e-14
2.42052e-13
1.27981e-14
2.36451e-13
1.37331e-14
2.30532e-13
1.45033e-14
2.24363e-13
1.51084e-14
2.18007e-13
1.55519e-14
2.11528e-13
1.58398e-14
2.04986e-13
1.5981e-14
1.98435e-13
1.59862e-14
1.91926e-13
1.58678e-14
1.85503e-13
1.56394e-14
1.79206e-13
1.53152e-14
1.73068e-13
1.49101e-14
1.67116e-13
1.4439e-14
1.61372e-13
1.39172e-14
1.5585e-13
1.33597e-14
1.5056e-13
1.27817e-14
1.45505e-13
1.21981e-14
1.40683e-13
1.16243e-14
1.36085e-13
1.10758e-14
1.31698e-13
1.05687e-14
1.275e-13
1.01201e-14
1.23468e-13
9.74806e-15
1.1957e-13
9.47197e-15
1.15773e-13
9.31252e-15
1.12043e-13
9.29054e-15
1.08346e-13
9.42389e-15
1.04662e-13
9.7216e-15
1.00995e-13
1.0174e-14
9.73768e-14
1.07138e-14
1.11172e-14
2.75839e-13
3.67121e-14
2.8516e-13
7.75006e-14
2.87845e-13
9.25055e-14
2.8418e-13
9.19244e-14
2.76434e-13
8.34675e-14
2.66835e-13
7.1859e-14
2.57012e-13
5.96765e-14
2.47972e-13
4.8159e-14
2.40257e-13
3.77972e-14
2.34098e-13
2.87017e-14
2.29549e-13
2.08096e-14
2.26561e-13
1.39921e-14
2.25034e-13
8.10665e-15
2.24845e-13
3.02067e-15
2.25868e-13
-1.37978e-15
2.27974e-13
-5.18814e-15
2.3104e-13
-8.4785e-15
2.34947e-13
-1.1308e-14
2.39582e-13
-1.37194e-14
2.44834e-13
-1.57436e-14
2.50595e-13
-1.7402e-14
2.56759e-13
-1.87088e-14
2.6322e-13
-1.96725e-14
2.69872e-13
-2.02981e-14
2.76609e-13
-2.05886e-14
2.83324e-13
-2.05464e-14
2.89913e-13
-2.01751e-14
2.96271e-13
-1.94802e-14
3.02295e-13
-1.8471e-14
3.0789e-13
-1.71607e-14
3.12963e-13
-1.55675e-14
3.1743e-13
-1.37149e-14
3.21216e-13
-1.16313e-14
3.24257e-13
-9.34986e-15
3.265e-13
-6.90749e-15
3.27907e-13
-4.34416e-15
3.28452e-13
-1.70172e-15
3.28123e-13
9.77053e-16
3.26921e-13
3.64952e-15
3.24861e-13
6.27405e-15
3.21973e-13
8.81099e-15
3.18295e-13
1.12236e-14
3.13878e-13
1.34787e-14
3.08783e-13
1.55481e-14
3.03077e-13
1.74086e-14
2.96832e-13
1.90427e-14
2.90126e-13
2.04387e-14
2.83039e-13
2.15909e-14
2.75648e-13
2.24991e-14
2.68032e-13
2.31678e-14
2.60266e-13
2.36063e-14
2.52419e-13
2.38273e-14
2.44559e-13
2.38467e-14
2.36744e-13
2.36827e-14
2.29028e-13
2.33551e-14
2.21459e-13
2.2885e-14
2.14075e-13
2.22941e-14
2.06909e-13
2.16044e-14
1.99989e-13
2.0838e-14
1.93331e-13
2.00171e-14
1.86949e-13
1.91634e-14
1.80849e-13
1.82988e-14
1.75028e-13
1.7445e-14
1.6948e-13
1.66237e-14
1.64192e-13
1.58571e-14
1.59144e-13
1.51676e-14
1.54314e-13
1.45782e-14
1.49674e-13
1.41119e-14
1.45195e-13
1.37914e-14
1.4085e-13
1.36364e-14
1.36614e-13
1.36599e-14
1.32474e-13
1.38612e-14
1.28433e-13
1.42152e-14
1.24502e-13
1.46448e-14
1.49582e-14
2.73493e-13
2.98862e-14
2.83192e-13
6.78014e-14
2.89809e-13
8.58886e-14
2.91871e-13
8.98623e-14
2.9008e-13
8.52582e-14
2.85801e-13
7.61377e-14
2.80351e-13
6.51269e-14
2.74742e-13
5.3768e-14
2.69658e-13
4.28808e-14
2.65515e-13
3.28453e-14
2.62531e-13
2.3793e-14
2.60798e-13
1.57251e-14
2.60323e-13
8.58184e-15
2.61063e-13
2.28077e-15
2.62946e-13
-3.26273e-15
2.65883e-13
-8.12561e-15
2.69778e-13
-1.23731e-14
2.74527e-13
-1.60575e-14
2.80027e-13
-1.9219e-14
2.8617e-13
-2.18866e-14
2.92848e-13
-2.408e-14
2.99951e-13
-2.58116e-14
3.07366e-13
-2.7088e-14
3.14981e-13
-2.79124e-14
3.22678e-13
-2.82858e-14
3.30341e-13
-2.82096e-14
3.37853e-13
-2.76868e-14
3.45097e-13
-2.6724e-14
3.51958e-13
-2.53325e-14
3.58327e-13
-2.353e-14
3.64101e-13
-2.13408e-14
3.69183e-13
-1.87967e-14
3.73488e-13
-1.59367e-14
3.76944e-13
-1.28059e-14
3.79492e-13
-9.45507e-15
3.81086e-13
-5.93892e-15
3.81699e-13
-2.31467e-15
3.81317e-13
1.35934e-15
3.79942e-13
5.02494e-15
3.7759e-13
8.62534e-15
3.74295e-13
1.21064e-14
3.70101e-13
1.54177e-14
3.65065e-13
1.8514e-14
3.59257e-13
2.13564e-14
3.52753e-13
2.3913e-14
3.45636e-13
2.61598e-14
3.37993e-13
2.8081e-14
3.29916e-13
2.96685e-14
3.21493e-13
3.09221e-14
3.12813e-13
3.18481e-14
3.0396e-13
3.2459e-14
2.95015e-13
3.27724e-14
2.86051e-13
3.28099e-14
2.77138e-13
3.25962e-14
2.68335e-13
3.21584e-14
2.59695e-13
3.15248e-14
2.51264e-13
3.07251e-14
2.43079e-13
2.9789e-14
2.35171e-13
2.87464e-14
2.27561e-13
2.76268e-14
2.20265e-13
2.64597e-14
2.1329e-13
2.52738e-14
2.06637e-13
2.40977e-14
2.00301e-13
2.29595e-14
1.94271e-13
2.18871e-14
1.88531e-13
2.09083e-14
1.83059e-13
2.00501e-14
1.77832e-13
1.93385e-14
1.72826e-13
1.87971e-14
1.68018e-13
1.84444e-14
1.63389e-13
1.82895e-14
1.58924e-13
1.83256e-14
1.54618e-13
1.85216e-14
1.50459e-13
1.88036e-14
1.90185e-14
2.71875e-13
2.46775e-14
2.80996e-13
5.86808e-14
2.89381e-13
7.75039e-14
2.94996e-13
8.42471e-14
2.97586e-13
8.26682e-14
2.97757e-13
7.59667e-14
2.9638e-13
6.65039e-14
2.94281e-13
5.58673e-14
2.92119e-13
4.50428e-14
2.90368e-13
3.45965e-14
2.89339e-13
2.48221e-14
2.89217e-13
1.58471e-14
2.90095e-13
7.70377e-15
2.92001e-13
3.7428e-16
2.9492e-13
-6.18201e-15
2.98807e-13
-1.20124e-14
3.03596e-13
-1.71622e-14
3.09209e-13
-2.16698e-14
3.15555e-13
-2.55654e-14
3.22539e-13
-2.88705e-14
3.30058e-13
-3.15987e-14
3.38003e-13
-3.37568e-14
3.46262e-13
-3.53466e-14
3.54716e-13
-3.63668e-14
3.63245e-13
-3.68148e-14
3.71724e-13
-3.66891e-14
3.80028e-13
-3.59908e-14
3.88031e-13
-3.47265e-14
3.95608e-13
-3.29093e-14
4.02638e-13
-3.05606e-14
4.09009e-13
-2.77114e-14
4.14615e-13
-2.44023e-14
4.19361e-13
-2.06835e-14
4.2317e-13
-1.66141e-14
4.25974e-13
-1.22598e-14
4.27727e-13
-7.69177e-15
4.28397e-13
-2.98419e-15
4.27968e-13
1.78752e-15
4.26445e-13
6.54824e-15
4.23846e-13
1.12246e-14
4.20206e-13
1.57465e-14
4.15575e-13
2.00486e-14
4.10017e-13
2.4072e-14
4.03607e-13
2.77659e-14
3.96431e-13
3.10888e-14
3.88582e-13
3.40097e-14
3.80155e-13
3.65079e-14
3.7125e-13
3.85733e-14
3.61966e-13
4.02055e-14
3.52401e-13
4.14131e-14
3.42648e-13
4.22125e-14
3.32794e-13
4.26266e-14
3.2292e-13
4.26833e-14
3.13102e-13
4.24146e-14
3.03405e-13
4.18554e-14
2.93888e-13
4.10424e-14
2.84599e-13
4.00134e-14
2.75582e-13
3.88066e-14
2.66868e-13
3.74601e-14
2.58483e-13
3.60115e-14
2.50445e-13
3.44978e-14
2.42764e-13
3.29553e-14
2.35442e-13
3.14193e-14
2.28477e-13
2.99245e-14
2.2186e-13
2.85043e-14
2.15577e-13
2.71914e-14
2.0961e-13
2.60167e-14
2.0394e-13
2.50086e-14
1.98545e-13
2.41919e-14
1.93405e-13
2.35845e-14
1.885e-13
2.31941e-14
1.83814e-13
2.30121e-14
1.79327e-13
2.30083e-14
1.75011e-13
2.31195e-14
2.32312e-14
2.70817e-13
2.05276e-14
2.79142e-13
5.03549e-14
2.88155e-13
6.84911e-14
2.95832e-13
7.65704e-14
3.01437e-13
7.70632e-14
3.0504e-13
7.23634e-14
3.07102e-13
6.4442e-14
3.08199e-13
5.47708e-14
3.08872e-13
4.43691e-14
3.09569e-13
3.38997e-14
3.10624e-13
2.37676e-14
3.12268e-13
1.42024e-14
3.14651e-13
5.32101e-15
3.17854e-13
-2.82835e-15
3.21908e-13
-1.02363e-14
3.26809e-13
-1.69131e-14
3.32523e-13
-2.28762e-14
3.38996e-13
-2.81435e-14
3.4616e-13
-3.27291e-14
3.53931e-13
-3.66416e-14
3.62216e-13
-3.9884e-14
3.70914e-13
-4.24541e-14
3.79913e-13
-4.43457e-14
3.89096e-13
-4.55503e-14
3.98341e-13
-4.60595e-14
4.07519e-13
-4.58667e-14
4.16498e-13
-4.497e-14
4.25146e-13
-4.33743e-14
4.3333e-13
-4.10934e-14
4.40921e-13
-3.81522e-14
4.47798e-13
-3.4588e-14
4.53846e-13
-3.04507e-14
4.58966e-13
-2.58029e-14
4.6307e-13
-2.07184e-14
4.6609e-13
-1.528e-14
4.67975e-13
-9.57641e-15
4.68691e-13
-3.7003e-15
4.68224e-13
2.2547e-15
4.66577e-13
8.19549e-15
4.6377e-13
1.40311e-14
4.59842e-13
1.96742e-14
4.54848e-13
2.50433e-14
4.48855e-13
3.00645e-14
4.41947e-13
3.46741e-14
4.34216e-13
3.88201e-14
4.25762e-13
4.24636e-14
4.16691e-13
4.55791e-14
4.0711e-13
4.81542e-14
3.97126e-13
5.01891e-14
3.86844e-13
5.1695e-14
3.76364e-13
5.26925e-14
3.6578e-13
5.32106e-14
3.55179e-13
5.32843e-14
3.4464e-13
5.29535e-14
3.34234e-13
5.22615e-14
3.24023e-13
5.12537e-14
3.14059e-13
4.99768e-14
3.04388e-13
4.84777e-14
2.95045e-13
4.6803e-14
2.86058e-13
4.49988e-14
2.77446e-13
4.311e-14
2.69221e-13
4.11801e-14
2.61388e-13
3.92516e-14
2.53948e-13
3.73652e-14
2.46892e-13
3.55601e-14
2.4021e-13
3.38735e-14
2.33887e-13
3.234e-14
2.27904e-13
3.09909e-14
2.22244e-13
2.98524e-14
2.16885e-13
2.89436e-14
2.11806e-13
2.82727e-14
2.06985e-13
2.78336e-14
2.02392e-13
2.76013e-14
1.97984e-13
2.75269e-14
2.75328e-14
2.70116e-13
1.70781e-14
2.77686e-13
4.27854e-14
2.86763e-13
5.94134e-14
2.9555e-13
6.7784e-14
3.03126e-13
6.94872e-14
3.09233e-13
6.6256e-14
3.14016e-13
5.9659e-14
3.17813e-13
5.09736e-14
3.21018e-13
4.11642e-14
3.24001e-13
3.09166e-14
3.27074e-13
2.06954e-14
3.30476e-13
1.08003e-14
3.34381e-13
1.41545e-15
3.38905e-13
-7.35217e-15
3.44113e-13
-1.54445e-14
3.50033e-13
-2.28325e-14
3.56659e-13
-2.95024e-14
3.63962e-13
-3.54469e-14
3.71893e-13
-4.06597e-14
3.80384e-13
-4.51327e-14
3.89354e-13
-4.88545e-14
3.98711e-13
-5.18103e-14
4.08348e-13
-5.39831e-14
4.18152e-13
-5.53548e-14
4.28002e-13
-5.59085e-14
4.37766e-13
-5.56308e-14
4.4731e-13
-5.45144e-14
4.56497e-13
-5.25612e-14
4.65188e-13
-4.97845e-14
4.73247e-13
-4.62117e-14
4.80545e-13
-4.18859e-14
4.86962e-13
-3.68668e-14
4.92389e-13
-3.12304e-14
4.96737e-13
-2.50665e-14
4.99933e-13
-1.84762e-14
5.01925e-13
-1.1568e-14
5.02678e-13
-4.45371e-15
5.02179e-13
2.75394e-15
5.00431e-13
9.94336e-15
4.97457e-13
1.70054e-14
4.93297e-13
2.38346e-14
4.88008e-13
3.03321e-14
4.81665e-13
3.64077e-14
4.74355e-13
4.19836e-14
4.66179e-13
4.69964e-14
4.57243e-13
5.1399e-14
4.47662e-13
5.51608e-14
4.37548e-13
5.82676e-14
4.27017e-13
6.07202e-14
4.16179e-13
6.25331e-14
4.05139e-13
6.37322e-14
3.93997e-13
6.43528e-14
3.82844e-13
6.44378e-14
3.71761e-13
6.40356e-14
3.60825e-13
6.31984e-14
3.50097e-13
6.19808e-14
3.39636e-13
6.04387e-14
3.29485e-13
5.8628e-14
3.19684e-13
5.66042e-14
3.10261e-13
5.44217e-14
3.01238e-13
5.21333e-14
2.92628e-13
4.97901e-14
2.84438e-13
4.74413e-14
2.7667e-13
4.51339e-14
2.69317e-13
4.29124e-14
2.62372e-13
4.08186e-14
2.55821e-13
3.88912e-14
2.49648e-13
3.71644e-14
2.43833e-13
3.56669e-14
2.38357e-13
3.44201e-14
2.33194e-13
3.34354e-14
2.28316e-13
3.27116e-14
2.23686e-13
3.22317e-14
2.1925e-13
3.19626e-14
3.18611e-14
2.69635e-13
1.41097e-14
2.76549e-13
3.58715e-14
2.85424e-13
5.05387e-14
2.94728e-13
5.84794e-14
3.0352e-13
6.06952e-14
3.11366e-13
5.84106e-14
3.18192e-13
5.28327e-14
3.24144e-13
4.50216e-14
3.29471e-13
3.58372e-14
3.3445e-13
2.59375e-14
3.39342e-13
1.58031e-14
3.4437e-13
5.77251e-15
3.49709e-13
-3.92365e-15
3.55489e-13
-1.31319e-14
3.61796e-13
-2.17517e-14
3.68681e-13
-2.97169e-14
3.7616e-13
-3.69821e-14
3.84226e-13
-4.3513e-14
3.92847e-13
-4.92807e-14
4.01972e-13
-5.42575e-14
4.11533e-13
-5.84147e-14
4.21445e-13
-6.17227e-14
4.31612e-13
-6.41506e-14
4.41926e-13
-6.56685e-14
4.52266e-13
-6.62488e-14
4.62505e-13
-6.5869e-14
4.72505e-13
-6.45147e-14
4.82126e-13
-6.21826e-14
4.91226e-13
-5.88839e-14
4.99662e-13
-5.46476e-14
5.07298e-13
-4.9522e-14
5.14008e-13
-4.35768e-14
5.19679e-13
-3.69019e-14
5.24218e-13
-2.96054e-14
5.27551e-13
-2.18087e-14
5.29624e-13
-1.3641e-14
5.30405e-13
-5.23482e-15
5.2988e-13
3.27813e-15
5.28056e-13
1.17679e-14
5.24954e-13
2.01073e-14
5.20616e-13
2.81723e-14
5.15103e-13
3.58452e-14
5.08493e-13
4.30182e-14
5.00878e-13
4.95981e-14
4.92366e-13
5.55092e-14
4.83069e-13
6.06956e-14
4.73108e-13
6.51219e-14
4.62603e-13
6.87722e-14
4.51675e-13
7.16488e-14
4.40438e-13
7.37701e-14
4.29002e-13
7.51678e-14
4.1747e-13
7.58847e-14
4.05936e-13
7.59721e-14
3.94484e-13
7.54872e-14
3.83191e-13
7.44918e-14
3.72122e-13
7.30499e-14
3.61334e-13
7.12268e-14
3.50874e-13
6.90877e-14
3.40781e-13
6.66968e-14
3.31086e-13
6.41171e-14
3.2181e-13
6.14092e-14
3.12969e-13
5.86317e-14
3.04569e-13
5.58404e-14
2.96615e-13
5.30883e-14
2.89102e-13
5.04254e-14
2.82022e-13
4.78983e-14
2.75364e-13
4.55494e-14
2.69112e-13
4.34167e-14
2.63246e-13
4.15322e-14
2.57746e-13
3.9921e-14
2.52582e-13
3.85992e-14
2.47721e-13
3.75725e-14
2.43119e-13
3.68333e-14
2.38717e-13
3.63645e-14
3.61553e-14
2.69287e-13
1.14892e-14
2.75642e-13
2.9517e-14
2.84187e-13
4.19936e-14
2.9364e-13
4.90257e-14
3.03112e-13
5.12234e-14
3.12091e-13
4.94314e-14
3.2037e-13
4.45539e-14
3.2795e-13
3.74414e-14
3.34958e-13
2.88294e-14
3.41579e-13
1.93162e-14
3.48015e-13
9.36749e-15
3.54454e-13
-6.6619e-16
3.61058e-13
-1.05275e-14
3.67956e-13
-2.00305e-14
3.75245e-13
-2.90407e-14
3.82988e-13
-3.74598e-14
3.91219e-13
-4.52129e-14
3.99945e-13
-5.22395e-14
4.09152e-13
-5.8487e-14
4.18801e-13
-6.39068e-14
4.28838e-13
-6.84513e-14
4.39189e-13
-7.20738e-14
4.49766e-13
-7.47281e-14
4.60468e-13
-7.63701e-14
4.71178e-13
-7.69594e-14
4.81772e-13
-7.64626e-14
4.92113e-13
-7.48557e-14
5.02059e-13
-7.21288e-14
5.11464e-13
-6.8289e-14
5.20182e-13
-6.33649e-14
5.28069e-13
-5.74096e-14
5.34995e-13
-5.05027e-14
5.40843e-13
-4.27496e-14
5.45516e-13
-3.42784e-14
5.48941e-13
-2.52334e-14
5.51067e-13
-1.5767e-14
5.51864e-13
-6.03257e-15
5.51323e-13
3.81973e-15
5.49447e-13
1.36432e-14
5.46261e-13
2.32935e-14
5.41805e-13
3.2628e-14
5.36142e-13
4.1509e-14
5.29351e-13
4.98092e-14
5.21531e-13
5.7418e-14
5.12793e-13
6.42467e-14
5.03258e-13
7.02303e-14
4.93052e-13
7.53286e-14
4.82299e-13
7.95248e-14
4.71125e-13
8.28233e-14
4.59647e-13
8.52473e-14
4.4798e-13
8.68353e-14
4.36226e-13
8.76382e-14
4.24483e-13
8.7716e-14
4.12834e-13
8.71359e-14
4.01357e-13
8.5969e-14
3.90117e-13
8.42892e-14
3.79173e-13
8.21713e-14
3.68571e-13
7.96897e-14
3.5835e-13
7.69175e-14
3.48541e-13
7.3926e-14
3.39167e-13
7.07836e-14
3.30242e-13
6.75561e-14
3.21777e-13
6.43059e-14
3.13773e-13
6.1092e-14
3.06229e-13
5.79697e-14
2.99137e-13
5.49902e-14
2.92486e-13
5.22005e-14
2.8626e-13
4.96424e-14
2.8044e-13
4.73521e-14
2.75002e-13
4.53592e-14
2.69915e-13
4.3686e-14
2.65142e-13
4.23458e-14
2.60634e-13
4.13415e-14
2.56327e-13
4.06715e-14
4.03551e-14
2.69021e-13
9.13526e-15
2.74889e-13
2.36483e-14
2.83043e-13
3.384e-14
2.92408e-13
3.96603e-14
3.02177e-13
4.14546e-14
3.11821e-13
3.97875e-14
3.21057e-13
3.53183e-14
3.29787e-13
2.87105e-14
3.38045e-13
2.05723e-14
3.45934e-13
1.14271e-14
3.53596e-13
1.70526e-15
3.6118e-13
-8.25056e-15
3.68826e-13
-1.81734e-14
3.76653e-13
-2.78578e-14
3.84758e-13
-3.71449e-14
3.93208e-13
-4.59105e-14
4.02049e-13
-5.4054e-14
4.113e-13
-6.14906e-14
4.20958e-13
-6.81448e-14
4.30998e-13
-7.39468e-14
4.41377e-13
-7.88296e-14
4.52031e-13
-8.27281e-14
4.62882e-13
-8.55794e-14
4.73836e-13
-8.73236e-14
4.84782e-13
-8.79061e-14
4.956e-13
-8.72803e-14
5.06156e-13
-8.54113e-14
5.16306e-13
-8.22798e-14
5.25904e-13
-7.78869e-14
5.34799e-13
-7.22592e-14
5.42842e-13
-6.54531e-14
5.49898e-13
-5.7558e-14
5.55845e-13
-4.86965e-14
5.60586e-13
-3.90197e-14
5.64051e-13
-2.86987e-14
5.66196e-13
-1.79116e-14
5.66996e-13
-6.83318e-15
5.66446e-13
4.3704e-15
5.6455e-13
1.55392e-14
5.61329e-13
2.65144e-14
5.56822e-13
3.71352e-14
5.51088e-13
4.72422e-14
5.44212e-13
5.66857e-14
5.36294e-13
6.53359e-14
5.27451e-13
7.30895e-14
5.17809e-13
7.98724e-14
5.07498e-13
8.564e-14
4.96647e-13
9.03752e-14
4.85385e-13
9.40859e-14
4.73831e-13
9.68008e-14
4.621e-13
9.8566e-14
4.50297e-13
9.94413e-14
4.38517e-13
9.94962e-14
4.26845e-13
9.88077e-14
4.15357e-13
9.74569e-14
4.04119e-13
9.55275e-14
3.93187e-13
9.31037e-14
3.82607e-13
9.02691e-14
3.72419e-13
8.71056e-14
3.62653e-13
8.36924e-14
3.53331e-13
8.01058e-14
3.44468e-13
7.64186e-14
3.36074e-13
7.26995e-14
3.28153e-13
6.90135e-14
3.20702e-13
6.5421e-14
3.13714e-13
6.19782e-14
3.07178e-13
5.87364e-14
3.01078e-13
5.57419e-14
2.95395e-13
5.30356e-14
2.90102e-13
5.06524e-14
2.85167e-13
4.86211e-14
2.80549e-13
4.69637e-14
2.76197e-13
4.56934e-14
2.72045e-13
4.48234e-14
4.44016e-14
2.68804e-13
6.99825e-15
2.74237e-13
1.82149e-14
2.81963e-13
2.61137e-14
2.9108e-13
3.05437e-14
3.00867e-13
3.16677e-14
3.10811e-13
2.98431e-14
3.20594e-13
2.55353e-14
3.30058e-13
1.9247e-14
3.39163e-13
1.14671e-14
3.47951e-13
2.639e-15
3.5651e-13
-6.85368e-15
3.64949e-13
-1.66897e-14
3.73381e-13
-2.66056e-14
3.81911e-13
-3.63875e-14
3.90627e-13
-4.58612e-14
3.996e-13
-5.48832e-14
4.08878e-13
-6.33319e-14
4.18488e-13
-7.11008e-14
4.28437e-13
-7.80935e-14
4.3871e-13
-8.42197e-14
4.49273e-13
-8.93929e-14
4.60074e-13
-9.35294e-14
4.71044e-13
-9.65487e-14
4.82094e-13
-9.83744e-14
4.93125e-13
-9.89361e-14
5.04017e-13
-9.81732e-14
5.14644e-13
-9.60374e-14
5.24862e-13
-9.24985e-14
5.34524e-13
-8.7549e-14
5.43476e-13
-8.1211e-14
5.51565e-13
-7.35423e-14
5.58649e-13
-6.46418e-14
5.64604e-13
-5.46511e-14
5.69333e-13
-4.37493e-14
5.72774e-13
-3.21397e-14
5.74894e-13
-2.00309e-14
5.75679e-13
-7.61847e-15
5.75129e-13
4.92013e-15
5.7325e-13
1.74187e-14
5.70054e-13
2.97095e-14
5.65575e-13
4.16149e-14
5.59867e-13
5.29504e-14
5.53012e-13
6.35398e-14
5.45117e-13
7.32309e-14
5.36302e-13
8.19045e-14
5.26697e-13
8.94776e-14
5.16435e-13
9.59019e-14
5.05649e-13
1.01161e-13
4.94468e-13
1.05268e-13
4.83012e-13
1.08257e-13
4.71395e-13
1.10183e-13
4.59721e-13
1.11115e-13
4.48083e-13
1.11134e-13
4.36566e-13
1.10325e-13
4.25242e-13
1.0878e-13
4.14178e-13
1.06592e-13
4.03426e-13
1.03856e-13
3.93033e-13
1.00662e-13
3.83036e-13
9.71021e-14
3.73466e-13
9.32631e-14
3.64343e-13
8.92287e-14
3.55683e-13
8.50785e-14
3.47495e-13
8.08874e-14
3.39782e-13
7.67261e-14
3.32543e-13
7.26603e-14
3.2577e-13
6.8751e-14
3.19453e-13
6.50541e-14
3.13574e-13
6.16206e-14
3.08113e-13
5.84962e-14
3.03044e-13
5.57217e-14
2.98332e-13
5.33329e-14
2.93935e-13
5.13604e-14
2.89801e-13
4.98275e-14
2.85863e-13
4.87616e-14
4.82371e-14
2.68617e-13
5.04802e-15
2.73646e-13
1.31857e-14
2.80919e-13
1.88407e-14
2.89671e-13
2.17917e-14
2.99266e-13
2.20722e-14
3.09225e-13
1.98849e-14
3.19218e-13
1.55421e-14
3.29053e-13
9.41203e-15
3.38644e-13
1.87641e-15
3.47982e-13
-6.69953e-15
3.57112e-13
-1.59838e-14
3.66107e-13
-2.56847e-14
3.75053e-13
-3.55518e-14
3.84038e-13
-4.53715e-14
3.93138e-13
-5.49621e-14
4.02422e-13
-6.41667e-14
4.11937e-13
-7.28475e-14
4.21717e-13
-8.088e-14
4.31772e-13
-8.81488e-14
4.42097e-13
-9.45446e-14
4.52666e-13
-9.99622e-14
4.63436e-13
-1.043e-13
4.74346e-13
-1.07458e-13
4.85317e-13
-1.09345e-13
4.96255e-13
-1.09874e-13
5.07051e-13
-1.08969e-13
5.1758e-13
-1.06566e-13
5.27705e-13
-1.02624e-13
5.3728e-13
-9.71233e-14
5.46147e-13
-9.00784e-14
5.5415e-13
-8.15455e-14
5.6114e-13
-7.1632e-14
5.6699e-13
-6.05011e-14
5.71607e-13
-4.83661e-14
5.7494e-13
-3.54724e-14
5.76975e-13
-2.20663e-14
5.77721e-13
-8.36386e-15
5.77185e-13
5.45593e-15
5.7537e-13
1.92335e-14
5.72278e-13
3.28022e-14
5.67923e-13
4.59694e-14
5.62353e-13
5.852e-14
5.55649e-13
7.02439e-14
5.47918e-13
8.0962e-14
5.39284e-13
9.05384e-14
5.2988e-13
9.88815e-14
5.19841e-13
1.05941e-13
5.093e-13
1.11702e-13
4.98385e-13
1.16183e-13
4.87215e-13
1.19427e-13
4.75901e-13
1.21497e-13
4.64544e-13
1.22472e-13
4.53236e-13
1.22442e-13
4.42056e-13
1.21504e-13
4.31077e-13
1.19759e-13
4.20361e-13
1.17309e-13
4.09959e-13
1.14257e-13
3.99916e-13
1.10705e-13
3.90268e-13
1.0675e-13
3.81044e-13
1.02487e-13
3.72265e-13
9.80082e-14
3.63944e-13
9.33986e-14
3.56092e-13
8.87398e-14
3.4871e-13
8.41078e-14
3.41797e-13
7.95734e-14
3.35346e-13
7.52024e-14
3.29344e-13
7.10555e-14
3.23777e-13
6.71882e-14
3.18621e-13
6.36516e-14
3.13851e-13
6.04922e-14
3.09431e-13
5.77528e-14
3.05319e-13
5.54726e-14
3.01462e-13
5.36845e-14
2.97794e-13
5.24291e-14
5.18057e-14
2.68448e-13
3.26674e-15
2.73089e-13
8.54441e-15
2.79885e-13
1.20448e-14
2.88182e-13
1.34945e-14
2.97423e-13
1.28317e-14
3.07166e-13
1.01422e-14
3.1709e-13
5.61759e-15
3.26987e-13
-4.84953e-16
3.36741e-13
-7.87736e-15
3.46308e-13
-1.62671e-14
3.55699e-13
-2.53742e-14
3.64955e-13
-3.4941e-14
3.74139e-13
-4.47354e-14
3.83319e-13
-5.45513e-14
3.92562e-13
-6.42052e-14
4.01927e-13
-7.35324e-14
4.11463e-13
-8.23831e-14
4.21201e-13
-9.06182e-14
4.31158e-13
-9.81061e-14
4.41334e-13
-1.0472e-13
4.51709e-13
-1.10337e-13
4.62248e-13
-1.14838e-13
4.72897e-13
-1.18108e-13
4.83587e-13
-1.20035e-13
4.9423e-13
-1.20518e-13
5.04726e-13
-1.19465e-13
5.1496e-13
-1.168e-13
5.248e-13
-1.12464e-13
5.34103e-13
-1.06426e-13
5.42714e-13
-9.86891e-14
5.5047e-13
-8.93021e-14
5.57217e-13
-7.83784e-14
5.6282e-13
-6.61049e-14
5.67193e-13
-5.2739e-14
5.70305e-13
-3.85841e-14
5.72177e-13
-2.3938e-14
5.72848e-13
-9.03546e-15
5.72345e-13
5.95954e-15
5.70661e-13
2.09174e-14
5.67773e-13
3.56903e-14
5.63668e-13
5.00739e-14
5.58377e-13
6.38107e-14
5.51978e-13
7.66434e-14
5.4458e-13
8.83604e-14
5.36309e-13
9.88091e-14
5.27299e-13
1.07891e-13
5.17683e-13
1.15556e-13
5.07593e-13
1.21793e-13
4.97151e-13
1.26625e-13
4.86474e-13
1.30104e-13
4.75669e-13
1.32302e-13
4.64831e-13
1.3331e-13
4.54048e-13
1.33225e-13
4.43398e-13
1.32155e-13
4.32947e-13
1.3021e-13
4.22756e-13
1.27501e-13
4.12875e-13
1.24139e-13
4.03345e-13
1.20234e-13
3.94202e-13
1.15893e-13
3.85473e-13
1.11216e-13
3.77178e-13
1.06303e-13
3.69331e-13
1.01246e-13
3.61939e-13
9.61313e-14
3.55006e-13
9.10409e-14
3.48529e-13
8.60507e-14
3.425e-13
8.12309e-14
3.36909e-13
7.66469e-14
3.31738e-13
7.23591e-14
3.26966e-13
6.84233e-14
3.22567e-13
6.48921e-14
3.18504e-13
6.1815e-14
3.14738e-13
5.92393e-14
3.11215e-13
5.72072e-14
3.07873e-13
5.57712e-14
5.50538e-14
2.68289e-13
1.64456e-15
2.72548e-13
4.2849e-15
2.78843e-13
5.75032e-15
2.86611e-13
5.72593e-15
2.95365e-13
4.07787e-15
3.04705e-13
8.02133e-16
3.14328e-13
-4.00539e-15
3.24022e-13
-1.01787e-14
3.33655e-13
-1.75099e-14
3.43159e-13
-2.5772e-14
3.5252e-13
-3.47348e-14
3.61755e-13
-4.41756e-14
3.70904e-13
-5.38846e-14
3.80019e-13
-6.36669e-14
3.89156e-13
-7.3342e-14
3.98366e-13
-8.27419e-14
4.07691e-13
-9.17086e-14
4.17165e-13
-1.00092e-13
4.26804e-13
-1.07745e-13
4.36611e-13
-1.14527e-13
4.46573e-13
-1.20299e-13
4.56658e-13
-1.24924e-13
4.66822e-13
-1.28271e-13
4.77e-13
-1.30213e-13
4.87115e-13
-1.30633e-13
4.97076e-13
-1.29426e-13
5.06776e-13
-1.265e-13
5.16097e-13
-1.21785e-13
5.24904e-13
-1.15233e-13
5.33045e-13
-1.0683e-13
5.40356e-13
-9.6613e-14
5.46671e-13
-8.46931e-14
5.51849e-13
-7.12828e-14
5.55806e-13
-5.66957e-14
5.58542e-13
-4.13209e-14
5.60138e-13
-2.5534e-14
5.60689e-13
-9.58627e-15
5.60245e-13
6.40387e-15
5.58785e-13
2.23768e-14
5.56241e-13
3.82351e-14
5.52548e-13
5.37662e-14
5.47713e-13
6.8646e-14
5.41809e-13
8.25471e-14
5.34951e-13
9.52187e-14
5.27265e-13
1.06495e-13
5.18881e-13
1.16276e-13
5.09925e-13
1.24512e-13
5.00522e-13
1.31196e-13
4.9079e-13
1.36357e-13
4.80838e-13
1.40056e-13
4.70766e-13
1.42375e-13
4.60664e-13
1.43411e-13
4.50616e-13
1.43274e-13
4.40693e-13
1.42078e-13
4.30961e-13
1.39942e-13
4.21476e-13
1.36986e-13
4.12286e-13
1.33329e-13
4.03432e-13
1.29088e-13
3.94948e-13
1.24377e-13
3.8686e-13
1.19305e-13
3.79187e-13
1.13977e-13
3.71942e-13
1.08491e-13
3.65132e-13
1.02941e-13
3.5876e-13
9.74127e-14
3.52824e-13
9.19873e-14
3.47315e-13
8.67396e-14
3.42223e-13
8.17394e-14
3.3753e-13
7.70515e-14
3.33217e-13
7.27369e-14
3.29255e-13
6.88534e-14
3.25613e-13
6.54571e-14
3.2225e-13
6.26029e-14
3.19115e-13
6.03412e-14
3.16151e-13
5.87359e-14
5.79306e-14
2.68134e-13
1.76737e-16
2.72011e-13
4.08381e-16
2.77779e-13
-1.76075e-17
2.84955e-13
-1.45042e-15
2.93113e-13
-4.0799e-15
3.01895e-13
-7.9801e-15
3.11021e-13
-1.31312e-14
3.20284e-13
-1.94418e-14
3.29546e-13
-2.6772e-14
3.38727e-13
-3.49524e-14
3.47791e-13
-4.37989e-14
3.56738e-13
-5.3123e-14
3.65592e-13
-6.27382e-14
3.74389e-13
-7.24636e-14
3.83172e-13
-8.2125e-14
3.91984e-13
-9.15541e-14
4.00863e-13
-1.00588e-13
4.09839e-13
-1.09067e-13
4.18928e-13
-1.16834e-13
4.28134e-13
-1.23734e-13
4.37447e-13
-1.29612e-13
4.46839e-13
-1.34316e-13
4.56268e-13
-1.377e-13