/*--------------------------------*- C++ -*----------------------------------*\
  =========                 |
  \\      /  F ield         | OpenFOAM: The Open Source CFD Toolbox
   \\    /   O peration     | Website:  https://openfoam.org
    \\  /    A nd           | Version:  7
     \\/     M anipulation  |
\*---------------------------------------------------------------------------*/
FoamFile
{
    version     2.0;
    format      ascii;
    class       volVectorField;
    location    "10";
    object      U;
}
// * * * * * * * * * * * * * * * * * * * * * * * * * * * * * * * * * * * * * //

dimensions      [0 1 -1 0 0 0 0];

internalField   nonuniform List<vector> 
5625
(
(0.000695044 0.000147206 0)
(0.000593071 0.00012786 0)
(0.000428773 7.49121e-05 0)
(0.000311053 4.20973e-05 0)
(0.000242168 2.42845e-05 0)
(0.000199178 1.45771e-05 0)
(0.000170429 9.16738e-06 0)
(0.000150597 6.02123e-06 0)
(0.000136658 4.07658e-06 0)
(0.000126778 2.79338e-06 0)
(0.000119832 1.89492e-06 0)
(0.000115094 1.23411e-06 0)
(0.000112074 7.287e-07 0)
(0.000110424 3.30242e-07 0)
(0.000109889 8.7174e-09 0)
(0.000110273 -2.55173e-07 0)
(0.000111426 -4.74292e-07 0)
(0.000113223 -6.5727e-07 0)
(0.000115561 -8.10048e-07 0)
(0.00011835 -9.36552e-07 0)
(0.000121511 -1.03947e-06 0)
(0.000124969 -1.12041e-06 0)
(0.000128656 -1.18043e-06 0)
(0.000132503 -1.22001e-06 0)
(0.000136446 -1.23949e-06 0)
(0.000140417 -1.23893e-06 0)
(0.000144354 -1.21854e-06 0)
(0.000148193 -1.17849e-06 0)
(0.000151871 -1.1193e-06 0)
(0.000155328 -1.0416e-06 0)
(0.000158507 -9.46533e-07 0)
(0.000161355 -8.35386e-07 0)
(0.000163823 -7.09979e-07 0)
(0.000165869 -5.72293e-07 0)
(0.000167459 -4.24712e-07 0)
(0.000168563 -2.69724e-07 0)
(0.000169164 -1.10031e-07 0)
(0.00016925 5.16437e-08 0)
(0.000168819 2.12566e-07 0)
(0.000167876 3.70048e-07 0)
(0.000166437 5.21605e-07 0)
(0.000164523 6.64848e-07 0)
(0.000162162 7.9779e-07 0)
(0.000159391 9.18576e-07 0)
(0.000156249 1.02593e-06 0)
(0.000152779 1.11869e-06 0)
(0.000149029 1.19639e-06 0)
(0.000145046 1.25862e-06 0)
(0.000140879 1.30567e-06 0)
(0.000136575 1.3378e-06 0)
(0.000132181 1.35591e-06 0)
(0.00012774 1.36073e-06 0)
(0.000123293 1.35361e-06 0)
(0.000118877 1.33555e-06 0)
(0.000114524 1.3081e-06 0)
(0.000110264 1.27242e-06 0)
(0.000106121 1.23011e-06 0)
(0.000102114 1.18237e-06 0)
(9.82601e-05 1.13078e-06 0)
(9.45699e-05 1.07653e-06 0)
(9.10502e-05 1.02118e-06 0)
(8.77034e-05 9.65964e-07 0)
(8.45271e-05 9.12537e-07 0)
(8.15144e-05 8.62314e-07 0)
(7.86532e-05 8.17326e-07 0)
(7.59251e-05 7.79651e-07 0)
(7.3305e-05 7.52455e-07 0)
(7.07586e-05 7.39905e-07 0)
(6.82388e-05 7.49154e-07 0)
(6.56775e-05 7.91871e-07 0)
(6.29845e-05 8.8779e-07 0)
(6.00495e-05 1.07392e-06 0)
(5.65699e-05 1.44008e-06 0)
(5.15633e-05 2.12539e-06 0)
(4.53756e-05 2.97828e-06 0)
(0.000985655 0.000289677 0)
(0.000967938 0.000304609 0)
(0.000841488 0.000216354 0)
(0.000709154 0.000145089 0)
(0.000604481 9.73918e-05 0)
(0.000524844 6.63355e-05 0)
(0.000464751 4.60971e-05 0)
(0.000419815 3.26022e-05 0)
(0.00038645 2.327e-05 0)
(0.00036192 1.65596e-05 0)
(0.000344234 1.15572e-05 0)
(0.000331951 7.70978e-06 0)
(0.000324006 4.67218e-06 0)
(0.000319601 2.22237e-06 0)
(0.000318123 2.1335e-07 0)
(0.000319092 -1.45471e-06 0)
(0.000322119 -2.85053e-06 0)
(0.000326883 -4.02214e-06 0)
(0.000333112 -5.00281e-06 0)
(0.000340566 -5.81572e-06 0)
(0.000349028 -6.47638e-06 0)
(0.000358298 -6.99522e-06 0)
(0.000368186 -7.37855e-06 0)
(0.000378508 -7.63049e-06 0)
(0.000389085 -7.75319e-06 0)
(0.00039974 -7.74849e-06 0)
(0.000410299 -7.61783e-06 0)
(0.00042059 -7.36373e-06 0)
(0.000430446 -6.9894e-06 0)
(0.000439707 -6.50011e-06 0)
(0.000448217 -5.90253e-06 0)
(0.000455837 -5.20574e-06 0)
(0.000462438 -4.42041e-06 0)
(0.000467907 -3.5594e-06 0)
(0.00047215 -2.63682e-06 0)
(0.000475094 -1.66825e-06 0)
(0.000476687 -6.69889e-07 0)
(0.000476898 3.41561e-07 0)
(0.000475722 1.34945e-06 0)
(0.000473173 2.33758e-06 0)
(0.000469286 3.29046e-06 0)
(0.000464121 4.19399e-06 0)
(0.000457751 5.0353e-06 0)
(0.000450267 5.80378e-06 0)
(0.000441775 6.49044e-06 0)
(0.000432389 7.08908e-06 0)
(0.000422231 7.5952e-06 0)
(0.00041143 8.00728e-06 0)
(0.000400111 8.32519e-06 0)
(0.000388403 8.55158e-06 0)
(0.000376429 8.68991e-06 0)
(0.000364304 8.74599e-06 0)
(0.000352139 8.72581e-06 0)
(0.000340032 8.6372e-06 0)
(0.000328074 8.48759e-06 0)
(0.000316343 8.28583e-06 0)
(0.000304905 8.03997e-06 0)
(0.000293818 7.75914e-06 0)
(0.000283123 7.45155e-06 0)
(0.000272854 7.12635e-06 0)
(0.00026303 6.79179e-06 0)
(0.000253659 6.45722e-06 0)
(0.000244737 6.13137e-06 0)
(0.000236246 5.8245e-06 0)
(0.000228158 5.54705e-06 0)
(0.000220427 5.31207e-06 0)
(0.000212992 5.13461e-06 0)
(0.000205771 5.03519e-06 0)
(0.00019866 5.0415e-06 0)
(0.000191521 5.19463e-06 0)
(0.000184193 5.55242e-06 0)
(0.000176532 6.20464e-06 0)
(0.000168215 7.31855e-06 0)
(0.000158111 9.07442e-06 0)
(0.000147412 1.09422e-05 0)
(0.00102836 0.000252747 0)
(0.00105573 0.000355386 0)
(0.00100795 0.00031599 0)
(0.00092517 0.000250442 0)
(0.000838657 0.000190197 0)
(0.000760688 0.000142087 0)
(0.000695104 0.000105663 0)
(0.0006422 7.8429e-05 0)
(0.000600755 5.79079e-05 0)
(0.000569134 4.21943e-05 0)
(0.000545775 2.99339e-05 0)
(0.000529334 2.01866e-05 0)
(0.000518694 1.23025e-05 0)
(0.000512943 5.82966e-06 0)
(0.000511335 4.50701e-07 0)
(0.000513255 -4.05913e-06 0)
(0.000518184 -7.86022e-06 0)
(0.000525682 -1.10668e-05 0)
(0.00053536 -1.37603e-05 0)
(0.000546872 -1.59974e-05 0)
(0.000559901 -1.78175e-05 0)
(0.000574147 -1.92466e-05 0)
(0.000589324 -2.03016e-05 0)
(0.000605155 -2.09928e-05 0)
(0.000621366 -2.1327e-05 0)
(0.000637688 -2.13088e-05 0)
(0.000653855 -2.09438e-05 0)
(0.000669606 -2.02386e-05 0)
(0.000684686 -1.92036e-05 0)
(0.000698848 -1.78528e-05 0)
(0.000711859 -1.62059e-05 0)
(0.000723504 -1.42871e-05 0)
(0.000733587 -1.21265e-05 0)
(0.000741936 -9.75857e-06 0)
(0.000748409 -7.22237e-06 0)
(0.000752893 -4.55973e-06 0)
(0.000755309 -1.81499e-06 0)
(0.000755611 9.66711e-07 0)
(0.000753787 3.74018e-06 0)
(0.000749859 6.46133e-06 0)
(0.000743882 9.0884e-06 0)
(0.00073594 1.15825e-05 0)
(0.000726147 1.39093e-05 0)
(0.000714639 1.60389e-05 0)
(0.000701575 1.79476e-05 0)
(0.000687127 1.9617e-05 0)
(0.000671483 2.10359e-05 0)
(0.000654833 2.21979e-05 0)
(0.000637373 2.3104e-05 0)
(0.000619295 2.37588e-05 0)
(0.000600786 2.41733e-05 0)
(0.000582025 2.43606e-05 0)
(0.000563179 2.43387e-05 0)
(0.0005444 2.41265e-05 0)
(0.000525826 2.3746e-05 0)
(0.000507579 2.3219e-05 0)
(0.000489763 2.25695e-05 0)
(0.000472464 2.18204e-05 0)
(0.000455752 2.09961e-05 0)
(0.000439676 2.01197e-05 0)
(0.000424271 1.92158e-05 0)
(0.00040955 1.83078e-05 0)
(0.000395511 1.74212e-05 0)
(0.000382133 1.65815e-05 0)
(0.000369376 1.58175e-05 0)
(0.00035718 1.51598e-05 0)
(0.000345465 1.46455e-05 0)
(0.000334128 1.43174e-05 0)
(0.000323044 1.42302e-05 0)
(0.00031206 1.44507e-05 0)
(0.00030102 1.50601e-05 0)
(0.000289843 1.61493e-05 0)
(0.000278329 1.7821e-05 0)
(0.000265327 2.00396e-05 0)
(0.000252203 2.19718e-05 0)
(0.00102601 0.000195904 0)
(0.00106518 0.000342868 0)
(0.00106597 0.000356355 0)
(0.00103065 0.000316777 0)
(0.000976886 0.000262472 0)
(0.000918641 0.000209711 0)
(0.000863685 0.000164113 0)
(0.000815682 0.000126511 0)
(0.000775907 9.60064e-05 0)
(0.000744384 7.13054e-05 0)
(0.000720565 5.11961e-05 0)
(0.000703695 3.46824e-05 0)
(0.000692982 2.09904e-05 0)
(0.000687678 9.53314e-06 0)
(0.000687107 -1.28365e-07 0)
(0.000690664 -8.32081e-06 0)
(0.000697813 -1.52853e-05 0)
(0.00070807 -2.11991e-05 0)
(0.000720998 -2.61901e-05 0)
(0.00073619 -3.03498e-05 0)
(0.000753266 -3.3741e-05 0)
(0.000771859 -3.64064e-05 0)
(0.000791614 -3.83729e-05 0)
(0.000812183 -3.96579e-05 0)
(0.000833221 -4.02717e-05 0)
(0.000854383 -4.02234e-05 0)
(0.000875331 -3.95217e-05 0)
(0.000895729 -3.81802e-05 0)
(0.000915249 -3.62175e-05 0)
(0.000933574 -3.36614e-05 0)
(0.000950405 -3.05477e-05 0)
(0.000965462 -2.69233e-05 0)
(0.000978494 -2.28438e-05 0)
(0.000989281 -1.8375e-05 0)
(0.000997636 -1.35891e-05 0)
(0.00100342 -8.56542e-06 0)
(0.00100652 -3.38635e-06 0)
(0.00100689 1.86333e-06 0)
(0.0010045 7.09918e-06 0)
(0.000999383 1.22389e-05 0)
(0.000991611 1.72038e-05 0)
(0.000981293 2.19217e-05 0)
(0.000968569 2.63273e-05 0)
(0.000953618 3.03653e-05 0)
(0.000936641 3.39899e-05 0)
(0.000917862 3.71675e-05 0)
(0.000897518 3.98749e-05 0)
(0.000875858 4.21018e-05 0)
(0.000853131 4.38471e-05 0)
(0.000829587 4.51214e-05 0)
(0.000805465 4.59421e-05 0)
(0.000780998 4.63358e-05 0)
(0.000756398 4.63333e-05 0)
(0.000731867 4.5972e-05 0)
(0.00070758 4.52903e-05 0)
(0.000683697 4.43314e-05 0)
(0.000660354 4.31376e-05 0)
(0.000637663 4.17539e-05 0)
(0.000615716 4.02237e-05 0)
(0.00059458 3.85924e-05 0)
(0.000574302 3.69034e-05 0)
(0.000554906 3.52023e-05 0)
(0.000536391 3.35337e-05 0)
(0.000518739 3.19453e-05 0)
(0.000501906 3.04855e-05 0)
(0.00048583 2.92082e-05 0)
(0.000470424 2.81705e-05 0)
(0.000455585 2.74383e-05 0)
(0.00044119 2.7083e-05 0)
(0.000427101 2.71841e-05 0)
(0.000413193 2.78169e-05 0)
(0.000399454 2.90372e-05 0)
(0.000385756 3.0846e-05 0)
(0.000370832 3.30337e-05 0)
(0.00035602 3.47172e-05 0)
(0.00101839 0.00015395 0)
(0.00105581 0.000309832 0)
(0.00107979 0.000356941 0)
(0.00107713 0.000344211 0)
(0.0010537 0.000304582 0)
(0.00101942 0.000256576 0)
(0.000981853 0.000209323 0)
(0.000945824 0.000166586 0)
(0.000914082 0.000129417 0)
(0.000887952 9.76578e-05 0)
(0.000867882 7.06934e-05 0)
(0.00085382 4.78084e-05 0)
(0.000845455 2.83343e-05 0)
(0.000842352 1.17014e-05 0)
(0.000844033 -2.55364e-06 0)
(0.000850013 -1.47961e-05 0)
(0.00085982 -2.53084e-05 0)
(0.000873001 -3.43039e-05 0)
(0.00088912 -4.19411e-05 0)
(0.000907758 -4.83333e-05 0)
(0.000928507 -5.35604e-05 0)
(0.000950965 -5.76745e-05 0)
(0.000974736 -6.07094e-05 0)
(0.000999421 -6.26848e-05 0)
(0.00102462 -6.36137e-05 0)
(0.00104994 -6.3506e-05 0)
(0.00107499 -6.23747e-05 0)
(0.00109936 -6.02384e-05 0)
(0.00112267 -5.71269e-05 0)
(0.00114454 -5.30817e-05 0)
(0.00116462 -4.81603e-05 0)
(0.00118259 -4.24349e-05 0)
(0.00119812 -3.59944e-05 0)
(0.00121098 -2.89407e-05 0)
(0.00122093 -2.13887e-05 0)
(0.00122781 -1.34618e-05 0)
(0.00123148 -5.2901e-06 0)
(0.00123189 2.99398e-06 0)
(0.00122901 1.12579e-05 0)
(0.00122288 1.93726e-05 0)
(0.00121357 2.72152e-05 0)
(0.00120121 3.46715e-05 0)
(0.00118599 4.16397e-05 0)
(0.00116809 4.80315e-05 0)
(0.00114777 5.37759e-05 0)
(0.00112529 5.88182e-05 0)
(0.00110094 6.31235e-05 0)
(0.001075 6.66729e-05 0)
(0.00104778 6.94667e-05 0)
(0.00101958 7.15184e-05 0)
(0.000990666 7.28574e-05 0)
(0.000961328 7.35226e-05 0)
(0.00093182 7.35644e-05 0)
(0.000902376 7.3038e-05 0)
(0.000873209 7.20066e-05 0)
(0.000844508 7.05343e-05 0)
(0.000816437 6.869e-05 0)
(0.000789129 6.65411e-05 0)
(0.000762697 6.4158e-05 0)
(0.000737223 6.16083e-05 0)
(0.000712767 5.8962e-05 0)
(0.00068936 5.62864e-05 0)
(0.000667011 5.36516e-05 0)
(0.000645704 5.11262e-05 0)
(0.000625401 4.87831e-05 0)
(0.000606041 4.66953e-05 0)
(0.000587544 4.49415e-05 0)
(0.000569814 4.36014e-05 0)
(0.000552744 4.27582e-05 0)
(0.000536215 4.24881e-05 0)
(0.000520135 4.28499e-05 0)
(0.000504534 4.38549e-05 0)
(0.000489298 4.54311e-05 0)
(0.000473011 4.72925e-05 0)
(0.000456954 4.86528e-05 0)
(0.00101242 0.000123957 0)
(0.00104454 0.000272632 0)
(0.00107755 0.000336972 0)
(0.00109449 0.000344944 0)
(0.00109401 0.000321024 0)
(0.00108135 0.000281982 0)
(0.00106205 0.00023794 0)
(0.00104057 0.000194377 0)
(0.00102003 0.000153901 0)
(0.00100246 0.000117496 0)
(0.000988961 8.53071e-05 0)
(0.000980078 5.70861e-05 0)
(0.000975957 3.24363e-05 0)
(0.000976508 1.09354e-05 0)
(0.0009815 -7.80584e-06 0)
(0.000990625 -2.41216e-05 0)
(0.00100353 -3.82843e-05 0)
(0.00101983 -5.05083e-05 0)
(0.00103914 -6.09555e-05 0)
(0.00106107 -6.97441e-05 0)
(0.00108521 -7.69551e-05 0)
(0.00111116 -8.26417e-05 0)
(0.00113848 -8.68346e-05 0)
(0.00116677 -8.95516e-05 0)
(0.00119559 -9.08014e-05 0)
(0.0012245 -9.05932e-05 0)
(0.00125306 -8.89394e-05 0)
(0.00128083 -8.58645e-05 0)
(0.00130739 -8.14065e-05 0)
(0.00133229 -7.56244e-05 0)
(0.00135515 -6.85969e-05 0)
(0.00137559 -6.04277e-05 0)
(0.00139327 -5.12411e-05 0)
(0.00140788 -4.11837e-05 0)
(0.00141918 -3.04176e-05 0)
(0.00142699 -1.91192e-05 0)
(0.00143114 -7.47223e-06 0)
(0.00143158 4.33487e-06 0)
(0.00142828 1.61147e-05 0)
(0.00142127 2.76844e-05 0)
(0.00141064 3.88691e-05 0)
(0.00139655 4.95074e-05 0)
(0.00137919 5.94533e-05 0)
(0.00135879 6.85824e-05 0)
(0.00133563 7.67916e-05 0)
(0.00131001 8.40048e-05 0)
(0.00128225 9.017e-05 0)
(0.00125269 9.52625e-05 0)
(0.00122167 9.92797e-05 0)
(0.00118952 0.000102244 0)
(0.00115657 0.000104193 0)
(0.00112313 0.000105186 0)
(0.00108948 0.000105289 0)
(0.00105591 0.000104586 0)
(0.00102263 0.00010316 0)
(0.000989881 0.000101107 0)
(0.000957834 9.85192e-05 0)
(0.000926649 9.54954e-05 0)
(0.00089645 9.21308e-05 0)
(0.000867337 8.85235e-05 0)
(0.000839377 8.47672e-05 0)
(0.000812614 8.09583e-05 0)
(0.000787064 7.71892e-05 0)
(0.000762719 7.35549e-05 0)
(0.000739545 7.0148e-05 0)
(0.000717493 6.7064e-05 0)
(0.000696489 6.4396e-05 0)
(0.000676453 6.22378e-05 0)
(0.00065729 6.06747e-05 0)
(0.000638903 5.97797e-05 0)
(0.000621215 5.95911e-05 0)
(0.000604276 6.00915e-05 0)
(0.000587955 6.11682e-05 0)
(0.000570689 6.25308e-05 0)
(0.00055372 6.35303e-05 0)
(0.00100862 0.000101614 0)
(0.00103557 0.000236804 0)
(0.00107083 0.000307453 0)
(0.00109842 0.000328938 0)
(0.00111361 0.000318181 0)
(0.00111804 0.000288788 0)
(0.00111499 0.000250273 0)
(0.0011078 0.000208689 0)
(0.0010993 0.000167556 0)
(0.00109161 0.000128734 0)
(0.00108618 9.30614e-05 0)
(0.0010839 6.0797e-05 0)
(0.00108526 3.18895e-05 0)
(0.00109048 6.14477e-06 0)
(0.00109956 -1.66813e-05 0)
(0.00111237 -3.68308e-05 0)
(0.00112871 -5.45199e-05 0)
(0.00114829 -6.9926e-05 0)
(0.00117079 -8.31877e-05 0)
(0.00119588 -9.44042e-05 0)
(0.00122317 -0.000103643 0)
(0.00125227 -0.000110943 0)
(0.00128276 -0.000116323 0)
(0.00131421 -0.000119788 0)
(0.00134617 -0.000121339 0)
(0.00137817 -0.000120976 0)
(0.00140976 -0.000118709 0)
(0.00144045 -0.000114563 0)
(0.00146978 -0.000108585 0)
(0.00149727 -0.000100848 0)
(0.0015225 -9.14574e-05 0)
(0.00154505 -8.05463e-05 0)
(0.00156454 -6.82825e-05 0)
(0.00158065 -5.48591e-05 0)
(0.0015931 -4.04944e-05 0)
(0.00160169 -2.54217e-05 0)
(0.00160625 -9.88692e-06 0)
(0.00160671 5.86096e-06 0)
(0.00160304 2.15729e-05 0)
(0.00159528 3.70061e-05 0)
(0.00158355 5.19289e-05 0)
(0.00156798 6.61252e-05 0)
(0.00154881 7.94017e-05 0)
(0.0015263 9.15902e-05 0)
(0.00150075 0.000102555 0)
(0.00147248 0.000112193 0)
(0.00144187 0.000120436 0)
(0.00140928 0.00012725 0)
(0.00137509 0.000132634 0)
(0.00133966 0.000136615 0)
(0.00130335 0.000139248 0)
(0.00126651 0.000140606 0)
(0.00122945 0.000140783 0)
(0.00119246 0.000139884 0)
(0.00115581 0.000138025 0)
(0.00111973 0.000135327 0)
(0.00108443 0.000131917 0)
(0.00105007 0.00012792 0)
(0.0010168 0.000123465 0)
(0.000984717 0.000118676 0)
(0.000953912 0.000113679 0)
(0.000924431 0.000108594 0)
(0.000896301 0.000103542 0)
(0.000869518 9.86395e-05 0)
(0.000844062 9.40037e-05 0)
(0.000819889 8.97459e-05 0)
(0.000796939 8.59766e-05 0)
(0.00077514 8.27967e-05 0)
(0.000754414 8.02976e-05 0)
(0.000734673 7.85452e-05 0)
(0.000715848 7.75698e-05 0)
(0.000697987 7.73377e-05 0)
(0.000680929 7.77304e-05 0)
(0.000662995 7.84856e-05 0)
(0.000645394 7.91039e-05 0)
(0.00100631 8.42494e-05 0)
(0.00102916 0.000203943 0)
(0.00106377 0.000274108 0)
(0.00109661 0.000302957 0)
(0.0011218 0.000301741 0)
(0.00113876 0.00028082 0)
(0.00114889 0.000248355 0)
(0.00115429 0.000210178 0)
(0.00115716 0.00017015 0)
(0.00115937 0.000130649 0)
(0.0011624 9.30341e-05 0)
(0.00116729 5.80038e-05 0)
(0.00117474 2.58507e-05 0)
(0.00118516 -3.36496e-06 0)
(0.00119876 -2.97029e-05 0)
(0.00121557 -5.32754e-05 0)
(0.00123551 -7.42048e-05 0)
(0.00125842 -9.26025e-05 0)
(0.00128406 -0.000108556 0)
(0.00131215 -0.000122126 0)
(0.00134235 -0.000133348 0)
(0.00137429 -0.000142233 0)
(0.00140757 -0.000148776 0)
(0.00144178 -0.000152962 0)
(0.00147645 -0.000154771 0)
(0.00151111 -0.000154191 0)
(0.00154528 -0.000151221 0)
(0.00157845 -0.000145886 0)
(0.00161013 -0.000138234 0)
(0.00163983 -0.000128356 0)
(0.00166707 -0.000116378 0)
(0.0016914 -0.000102471 0)
(0.00171243 -8.68439e-05 0)
(0.0017298 -6.97462e-05 0)
(0.00174321 -5.14537e-05 0)
(0.00175245 -3.22661e-05 0)
(0.00175735 -1.24938e-05 0)
(0.00175782 7.54619e-06 0)
(0.00175384 2.75398e-05 0)
(0.00174547 4.71795e-05 0)
(0.0017328 6.61711e-05 0)
(0.00171601 8.42404e-05 0)
(0.00169534 0.000101139 0)
(0.00167107 0.000116655 0)
(0.00164353 0.000130612 0)
(0.00161308 0.000142881 0)
(0.00158012 0.000153373 0)
(0.00154505 0.000162049 0)
(0.00150827 0.000168906 0)
(0.00147018 0.000173983 0)
(0.00143116 0.000177345 0)
(0.00139158 0.000179092 0)
(0.00135178 0.00017934 0)
(0.00131207 0.000178224 0)
(0.00127273 0.000175889 0)
(0.00123402 0.000172489 0)
(0.00119615 0.000168182 0)
(0.0011593 0.000163128 0)
(0.00112362 0.000157484 0)
(0.00108923 0.000151408 0)
(0.00105621 0.000145053 0)
(0.00102464 0.000138569 0)
(0.000994526 0.000132101 0)
(0.000965893 0.000125792 0)
(0.00093872 0.000119777 0)
(0.000912974 0.000114187 0)
(0.000888604 0.000109145 0)
(0.00086555 0.000104763 0)
(0.000843739 0.000101136 0)
(0.000823089 9.83321e-05 0)
(0.000803531 9.63776e-05 0)
(0.000785099 9.5244e-05 0)
(0.000767603 9.48228e-05 0)
(0.000749279 9.49039e-05 0)
(0.000731311 9.51274e-05 0)
(0.00100491 7.01377e-05 0)
(0.00102467 0.000174141 0)
(0.00105758 0.000239818 0)
(0.00109259 0.000271412 0)
(0.00112381 0.000276224 0)
(0.00114947 0.000261841 0)
(0.00116965 0.000234874 0)
(0.00118539 0.000200513 0)
(0.00119816 0.000162536 0)
(0.00120945 0.000123529 0)
(0.00122055 8.51656e-05 0)
(0.0012325 4.8469e-05 0)
(0.00124607 1.40221e-05 0)
(0.0012618 -1.78739e-05 0)
(0.00128 -4.70891e-05 0)
(0.00130086 -7.35871e-05 0)
(0.0013244 -9.7377e-05 0)
(0.00135056 -0.000118481 0)
(0.00137917 -0.000136917 0)
(0.00141003 -0.000152689 0)
(0.00144286 -0.000165785 0)
(0.00147731 -0.000176175 0)
(0.00151303 -0.000183818 0)
(0.00154959 -0.000188667 0)
(0.00158656 -0.000190677 0)
(0.00162346 -0.000189811 0)
(0.00165979 -0.000186056 0)
(0.00169504 -0.000179424 0)
(0.00172869 -0.000169969 0)
(0.00176022 -0.000157788 0)
(0.00178913 -0.000143034 0)
(0.00181495 -0.000125911 0)
(0.00183725 -0.00010668 0)
(0.00185565 -8.56432e-05 0)
(0.00186986 -6.31467e-05 0)
(0.00187963 -3.95572e-05 0)
(0.0018848 -1.52581e-05 0)
(0.00188528 9.36489e-06 0)
(0.00188105 3.39276e-05 0)
(0.00187217 5.80554e-05 0)
(0.00185874 8.1388e-05 0)
(0.00184097 0.000103587 0)
(0.00181908 0.000124347 0)
(0.00179339 0.000143404 0)
(0.00176426 0.000160542 0)
(0.00173207 0.000175599 0)
(0.00169725 0.000188472 0)
(0.00166021 0.000199109 0)
(0.0016214 0.000207514 0)
(0.00158123 0.000213731 0)
(0.00154011 0.00021785 0)
(0.00149843 0.000219988 0)
(0.00145655 0.000220293 0)
(0.00141478 0.000218927 0)
(0.00137343 0.000216072 0)
(0.00133276 0.000211913 0)
(0.00129298 0.000206643 0)
(0.00125429 0.000200454 0)
(0.00121685 0.000193538 0)
(0.00118078 0.000186082 0)
(0.00114618 0.000178271 0)
(0.00111311 0.00017028 0)
(0.00108161 0.000162284 0)
(0.00105169 0.000154445 0)
(0.00102334 0.000146922 0)
(0.000996544 0.000139861 0)
(0.000971253 0.000133402 0)
(0.000947411 0.000127664 0)
(0.000924953 0.000122753 0)
(0.000903796 0.000118739 0)
(0.000883864 0.000115662 0)
(0.000865176 0.000113502 0)
(0.000847514 0.000112181 0)
(0.000829065 0.000111544 0)
(0.000810987 0.000111367 0)
(0.00100401 5.81983e-05 0)
(0.00102145 0.000147028 0)
(0.0010524 0.000205971 0)
(0.00108786 0.000237064 0)
(0.00112244 0.000244955 0)
(0.00115384 0.000235058 0)
(0.0011813 0.000212523 0)
(0.00120506 0.000181734 0)
(0.00122596 0.000146139 0)
(0.00124504 0.000108294 0)
(0.00126332 7.00052e-05 0)
(0.00128174 3.24959e-05 0)
(0.00130104 -3.43629e-06 0)
(0.00132179 -3.7291e-05 0)
(0.00134439 -6.87632e-05 0)
(0.00136909 -9.7671e-05 0)
(0.00139602 -0.000123902 0)
(0.00142519 -0.000147379 0)
(0.00145652 -0.000168037 0)
(0.00148985 -0.000185811 0)
(0.00152495 -0.000200627 0)
(0.00156155 -0.000212406 0)
(0.00159929 -0.000221058 0)
(0.0016378 -0.000226498 0)
(0.00167665 -0.00022864 0)
(0.00171535 -0.000227424 0)
(0.00175343 -0.000222806 0)
(0.00179035 -0.00021479 0)
(0.00182559 -0.00020342 0)
(0.0018586 -0.000188804 0)
(0.00188885 -0.000171114 0)
(0.00191587 -0.000150594 0)
(0.00193918 -0.000127551 0)
(0.0019584 -0.000102358 0)
(0.00197322 -7.54266e-05 0)
(0.00198339 -4.72036e-05 0)
(0.00198877 -1.81446e-05 0)
(0.00198925 1.12905e-05 0)
(0.00198483 4.06492e-05 0)
(0.00197557 6.9487e-05 0)
(0.00196157 9.7375e-05 0)
(0.00194304 0.000123908 0)
(0.00192022 0.000148715 0)
(0.00189346 0.000171478 0)
(0.00186312 0.000191936 0)
(0.00182962 0.000209898 0)
(0.0017934 0.000225238 0)
(0.00175491 0.000237901 0)
(0.00171461 0.000247891 0)
(0.00167295 0.00025527 0)
(0.00163034 0.000260144 0)
(0.00158718 0.00026266 0)
(0.00154385 0.000262992 0)
(0.00150068 0.00026134 0)
(0.00145796 0.000257916 0)
(0.00141598 0.000252943 0)
(0.00137494 0.000246646 0)
(0.00133506 0.000239256 0)
(0.0012965 0.000230993 0)
(0.00125937 0.00022208 0)
(0.00122378 0.000212727 0)
(0.0011898 0.000203144 0)
(0.00115747 0.000193524 0)
(0.00112681 0.000184057 0)
(0.00109781 0.000174918 0)
(0.00107046 0.000166276 0)
(0.00104471 0.000158279 0)
(0.00102052 0.000151065 0)
(0.000997822 0.000144745 0)
(0.000976527 0.000139407 0)
(0.00095655 0.000135099 0)
(0.000937897 0.000131831 0)
(0.000920326 0.000129553 0)
(0.000902013 0.000128173 0)
(0.000884077 0.000127591 0)
(0.00100341 4.778e-05 0)
(0.00101905 0.000122196 0)
(0.00104806 0.000173212 0)
(0.00108302 0.000201618 0)
(0.00111917 0.000210297 0)
(0.00115408 0.000203024 0)
(0.00118652 0.000183702 0)
(0.00121619 0.000155896 0)
(0.00124339 0.000122604 0)
(0.00126876 8.62008e-05 0)
(0.00129306 4.84847e-05 0)
(0.00131704 1.07685e-05 0)
(0.00134136 -2.60158e-05 0)
(0.00136657 -6.12186e-05 0)
(0.0013931 -9.43912e-05 0)
(0.00142124 -0.000125219 0)
(0.00145118 -0.000153474 0)
(0.00148298 -0.000178977 0)
(0.00151662 -0.000201576 0)
(0.00155202 -0.000221126 0)
(0.00158899 -0.000237488 0)
(0.0016273 -0.000250518 0)
(0.00166663 -0.000260076 0)
(0.00170663 -0.000266021 0)
(0.00174689 -0.000268231 0)
(0.00178695 -0.000266599 0)
(0.00182634 -0.00026106 0)
(0.00186451 -0.000251586 0)
(0.00190093 -0.000238217 0)
(0.00193504 -0.000221059 0)
(0.00196631 -0.000200307 0)
(0.0019942 -0.000176238 0)
(0.00201825 -0.000149218 0)
(0.00203805 -0.000119687 0)
(0.0020533 -8.8141e-05 0)
(0.00206374 -5.51053e-05 0)
(0.00206924 -2.11167e-05 0)
(0.00206972 1.32963e-05 0)
(0.00206518 4.76122e-05 0)
(0.00205566 8.13204e-05 0)
(0.00204128 0.000113921 0)
(0.00202224 0.000144936 0)
(0.00199881 0.000173928 0)
(0.00197131 0.000200514 0)
(0.00194016 0.000224389 0)
(0.00190578 0.000245325 0)
(0.00186865 0.000263182 0)
(0.00182923 0.000277895 0)
(0.00178801 0.00028948 0)
(0.00174543 0.000298009 0)
(0.00170193 0.000303618 0)
(0.00165792 0.000306478 0)
(0.00161378 0.0003068 0)
(0.00156984 0.000304815 0)
(0.00152642 0.000300773 0)
(0.00148376 0.000294931 0)
(0.00144212 0.000287554 0)
(0.00140168 0.000278901 0)
(0.00136261 0.000269233 0)
(0.00132503 0.000258797 0)
(0.00128904 0.00024784 0)
(0.00125472 0.000236592 0)
(0.00122211 0.000225277 0)
(0.00119123 0.000214103 0)
(0.00116208 0.00020327 0)
(0.00113464 0.000192959 0)
(0.00110889 0.000183339 0)
(0.00108476 0.000174557 0)
(0.0010622 0.000166743 0)
(0.00104111 0.000159997 0)
(0.0010214 0.000154391 0)
(0.00100305 0.00014996 0)
(0.000985822 0.000146694 0)
(0.000967898 0.000144559 0)
(0.000950355 0.000143574 0)
(0.00100298 3.84914e-05 0)
(0.00101718 9.93126e-05 0)
(0.00104433 0.000141847 0)
(0.00107824 0.000166149 0)
(0.00111475 0.00017392 0)
(0.00115151 0.000167726 0)
(0.00118708 0.000150448 0)
(0.00122079 0.000124899 0)
(0.00125257 9.35949e-05 0)
(0.00128273 5.86463e-05 0)
(0.00131175 2.17475e-05 0)
(0.0013402 -1.5787e-05 0)
(0.00136864 -5.29602e-05 0)
(0.00139755 -8.90267e-05 0)
(0.00142735 -0.000123428 0)
(0.00145834 -0.000155741 0)
(0.00149073 -0.000185632 0)
(0.00152465 -0.000212827 0)
(0.00156011 -0.000237084 0)
(0.00159708 -0.000258181 0)
(0.00163541 -0.000275902 0)
(0.00167492 -0.000290041 0)
(0.00171532 -0.000300391 0)
(0.0017563 -0.000306761 0)
(0.00179747 -0.000308972 0)
(0.0018384 -0.000306877 0)
(0.0018786 -0.000300367 0)
(0.00191756 -0.000289389 0)
(0.00195473 -0.00027396 0)
(0.00198955 -0.000254187 0)
(0.00202144 -0.000230274 0)
(0.00204987 -0.000202541 0)
(0.00207435 -0.000171411 0)
(0.00209447 -0.000137407 0)
(0.00210991 -0.000101113 0)
(0.00212046 -6.3149e-05 0)
(0.00212599 -2.41279e-05 0)
(0.00212646 1.53524e-05 0)
(0.00212186 5.47142e-05 0)
(0.00211224 9.33843e-05 0)
(0.00209771 0.000130794 0)
(0.00207844 0.000166388 0)
(0.00205471 0.000199649 0)
(0.00202687 0.00023013 0)
(0.00199533 0.00025747 0)
(0.00196055 0.000281411 0)
(0.00192301 0.000301791 0)
(0.00188322 0.000318548 0)
(0.00184164 0.000331701 0)
(0.00179875 0.000341351 0)
(0.00175499 0.000347651 0)
(0.00171077 0.000350811 0)
(0.00166647 0.000351072 0)
(0.00162242 0.000348706 0)
(0.00157893 0.000343995 0)
(0.00153626 0.000337238 0)
(0.00149464 0.00032873 0)
(0.00145427 0.000318771 0)
(0.00141529 0.000307648 0)
(0.00137786 0.000295646 0)
(0.00134205 0.000283035 0)
(0.00130794 0.000270077 0)
(0.00127558 0.000257015 0)
(0.00124499 0.000244085 0)
(0.00121617 0.0002315 0)
(0.0011891 0.000219466 0)
(0.00116376 0.000208162 0)
(0.00114008 0.000197758 0)
(0.00111801 0.000188395 0)
(0.00109745 0.000180195 0)
(0.0010783 0.000173251 0)
(0.00106053 0.000167632 0)
(0.00104388 0.000163365 0)
(0.0010266 0.000160476 0)
(0.00100969 0.00015909 0)
(0.00100265 3.00947e-05 0)
(0.00101564 7.81437e-05 0)
(0.00104101 0.000112035 0)
(0.00107351 0.000131365 0)
(0.00110954 0.000137029 0)
(0.00114691 0.0001307 0)
(0.00118412 0.000114445 0)
(0.00122029 9.04248e-05 0)
(0.0012551 6.06861e-05 0)
(0.00128859 2.70422e-05 0)
(0.00132102 -8.974e-06 0)
(0.00135279 -4.61078e-05 0)
(0.00138432 -8.33551e-05 0)
(0.00141603 -0.000119919 0)
(0.0014483 -0.00015517 0)
(0.00148141 -0.000188597 0)
(0.0015156 -0.000219781 0)
(0.001551 -0.000248359 0)
(0.00158767 -0.000274009 0)
(0.00162561 -0.000296426 0)
(0.00166472 -0.000315326 0)
(0.00170484 -0.000330426 0)
(0.00174573 -0.000341461 0)
(0.00178711 -0.000348173 0)
(0.00182861 -0.000350332 0)
(0.00186983 -0.000347734 0)
(0.0019103 -0.000340229 0)
(0.00194952 -0.000327721 0)
(0.00198694 -0.000310205 0)
(0.00202199 -0.00028777 0)
(0.00205408 -0.000260637 0)
(0.00208265 -0.000229155 0)
(0.0021072 -0.000193822 0)
(0.00212731 -0.000155248 0)
(0.00214267 -0.000114131 0)
(0.00215311 -7.11899e-05 0)
(0.00215857 -2.71214e-05 0)
(0.00215901 1.74264e-05 0)
(0.00215444 6.18318e-05 0)
(0.00214491 0.000105477 0)
(0.00213048 0.000147726 0)
(0.00211131 0.000187937 0)
(0.00208767 0.000225504 0)
(0.00205991 0.000259901 0)
(0.00202846 0.000290713 0)
(0.0019938 0.000317643 0)
(0.00195643 0.000340519 0)
(0.00191684 0.000359276 0)
(0.00187553 0.000373951 0)
(0.00183298 0.000384662 0)
(0.00178962 0.0003916 0)
(0.00174585 0.000395002 0)
(0.00170206 0.000395152 0)
(0.00165857 0.000392354 0)
(0.00161568 0.000386933 0)
(0.00157365 0.000379218 0)
(0.00153269 0.000369547 0)
(0.00149301 0.000358247 0)
(0.00145475 0.000345643 0)
(0.00141803 0.000332045 0)
(0.00138297 0.000317757 0)
(0.00134961 0.000303061 0)
(0.00131802 0.00028823 0)
(0.0012882 0.000273514 0)
(0.00126017 0.000259155 0)
(0.00123391 0.000245368 0)
(0.00120938 0.000232358 0)
(0.00118652 0.000220303 0)
(0.00116529 0.00020937 0)
(0.00114556 0.000199696 0)
(0.00112725 0.000191405 0)
(0.00111031 0.000184594 0)
(0.00109448 0.000179334 0)
(0.00107808 0.000175699 0)
(0.00106206 0.000173923 0)
(0.00100239 2.24452e-05 0)
(0.0010143 5.85382e-05 0)
(0.00103793 8.38817e-05 0)
(0.00106878 9.77635e-05 0)
(0.00110372 0.000100515 0)
(0.00114075 9.31459e-05 0)
(0.0011784 7.70809e-05 0)
(0.0012157 5.39303e-05 0)
(0.00125216 2.53137e-05 0)
(0.00128764 -7.25716e-06 0)
(0.00132221 -4.24381e-05 0)
(0.00135612 -7.9075e-05 0)
(0.00138968 -0.000116197 0)
(0.00142322 -0.000152996 0)
(0.00145706 -0.000188798 0)
(0.00149148 -0.000223035 0)
(0.00152669 -0.000255215 0)
(0.00156285 -0.000284903 0)
(0.00160003 -0.000311698 0)
(0.00163826 -0.000335227 0)
(0.00167747 -0.000355127 0)
(0.00171753 -0.000371051 0)
(0.00175825 -0.000382661 0)
(0.00179936 -0.000389643 0)
(0.00184053 -0.000391698 0)
(0.00188139 -0.000388576 0)
(0.00192149 -0.000380065 0)
(0.00196036 -0.000366033 0)
(0.00199743 -0.000346429 0)
(0.00203216 -0.000321329 0)
(0.00206393 -0.000290946 0)
(0.00209218 -0.000255673 0)
(0.00211635 -0.000216073 0)
(0.00213605 -0.000172881 0)
(0.00215098 -0.000126921 0)
(0.00216104 -7.90435e-05 0)
(0.00216625 -3.00174e-05 0)
(0.00216664 1.94751e-05 0)
(0.00216223 6.88104e-05 0)
(0.00215302 0.000117348 0)
(0.00213903 0.000164393 0)
(0.00212037 0.000209202 0)
(0.00209726 0.000251058 0)
(0.00207009 0.000289345 0)
(0.00203929 0.000323585 0)
(0.00200534 0.000353452 0)
(0.00196876 0.000378757 0)
(0.00193005 0.000399445 0)
(0.0018897 0.000415566 0)
(0.00184819 0.000427271 0)
(0.00180593 0.000434779 0)
(0.00176333 0.000438368 0)
(0.00172076 0.000438355 0)
(0.00167852 0.000435086 0)
(0.00163691 0.000428919 0)
(0.00159618 0.000420225 0)
(0.00155653 0.000409369 0)
(0.00151816 0.000396717 0)
(0.00148121 0.000382621 0)
(0.00144581 0.000367427 0)
(0.00141203 0.000351457 0)
(0.00137996 0.000335026 0)
(0.00134963 0.000318424 0)
(0.00132107 0.000301929 0)
(0.00129427 0.000285795 0)
(0.00126922 0.000270262 0)
(0.00124588 0.000255546 0)
(0.00122421 0.000241849 0)
(0.00120413 0.00022935 0)
(0.00118554 0.000218215 0)
(0.00116833 0.00020859 0)
(0.00115247 0.000200608 0)
(0.00113769 0.000194372 0)
(0.0011224 0.000190013 0)
(0.00110749 0.000187856 0)
(0.00100216 1.54562e-05 0)
(0.00101307 4.04095e-05 0)
(0.00103499 5.74748e-05 0)
(0.00106399 6.57176e-05 0)
(0.00109736 6.50598e-05 0)
(0.00113329 5.60143e-05 0)
(0.00117042 3.94989e-05 0)
(0.00120773 1.6667e-05 0)
(0.00124465 -1.12388e-05 0)
(0.00128089 -4.29913e-05 0)
(0.00131641 -7.74445e-05 0)
(0.00135132 -0.000113566 0)
(0.00138583 -0.000150447 0)
(0.0014202 -0.000187296 0)
(0.00145469 -0.000223424 0)