# Field minima and maxima
# Time        	field         	min           	location(min) 	processor     	max           	location(max) 	processor     
1.19999e-06   	T             	5.729948e+02	(1.750000e-05 4.050000e-05 5.000000e-07)	0	5.730000e+02	(0.000000e+00 5.000000e-07 5.000000e-07)	0
2.639962e-06  	T             	5.729949e+02	(2.350000e-05 4.050000e-05 5.000000e-07)	0	5.730000e+02	(0.000000e+00 5.000000e-07 5.000000e-07)	0
4.367927e-06  	T             	5.729949e+02	(2.750000e-05 4.050000e-05 5.000000e-07)	0	5.730000e+02	(0.000000e+00 5.000000e-07 5.000000e-07)	0
6.44145e-06   	T             	5.729950e+02	(3.250000e-05 4.050000e-05 5.000000e-07)	0	5.730000e+02	(0.000000e+00 5.000000e-07 5.000000e-07)	0
8.929656e-06  	T             	5.729951e+02	(3.750000e-05 4.050000e-05 5.000000e-07)	0	5.730000e+02	(0.000000e+00 5.000000e-07 5.000000e-07)	0
1.191544e-05  	T             	5.729951e+02	(4.150000e-05 4.050000e-05 5.000000e-07)	0	5.730000e+02	(0.000000e+00 5.000000e-07 5.000000e-07)	0
1.549835e-05  	T             	5.729952e+02	(4.550000e-05 7.950000e-05 5.000000e-07)	0	5.730000e+02	(0.000000e+00 5.000000e-07 5.000000e-07)	0
1.979783e-05  	T             	5.729953e+02	(4.950000e-05 7.950000e-05 5.000000e-07)	0	5.730000e+02	(0.000000e+00 5.000000e-07 5.000000e-07)	0
2.495704e-05  	T             	5.729954e+02	(5.150000e-05 7.950000e-05 5.000000e-07)	0	5.730000e+02	(0.000000e+00 5.000000e-07 5.000000e-07)	0
3.114782e-05  	T             	5.729956e+02	(5.350000e-05 7.950000e-05 5.000000e-07)	1	5.730000e+02	(0.000000e+00 5.000000e-07 5.000000e-07)	0
3.857659e-05  	T             	5.729958e+02	(5.450000e-05 7.950000e-05 5.000000e-07)	1	5.730000e+02	(0.000000e+00 5.000000e-07 5.000000e-07)	0
4.749057e-05  	T             	5.729961e+02	(5.550000e-05 5.000000e-07 5.000000e-07)	1	5.730000e+02	(0.000000e+00 5.000000e-07 5.000000e-07)	0
5.81864e-05   	T             	5.729964e+02	(5.550000e-05 7.950000e-05 5.000000e-07)	1	5.730000e+02	(0.000000e+00 5.000000e-07 5.000000e-07)	0
7.102084e-05  	T             	5.729967e+02	(5.650000e-05 7.950000e-05 5.000000e-07)	1	5.730000e+02	(0.000000e+00 5.000000e-07 5.000000e-07)	0
8.642059e-05  	T             	5.729971e+02	(5.650000e-05 7.950000e-05 5.000000e-07)	1	5.730000e+02	(0.000000e+00 5.000000e-07 5.000000e-07)	0
0.0001048992  	T             	5.729975e+02	(5.650000e-05 7.950000e-05 5.000000e-07)	1	5.730000e+02	(0.000000e+00 5.000000e-07 5.000000e-07)	0
0.0001270734  	T             	5.729979e+02	(5.650000e-05 7.950000e-05 5.000000e-07)	1	5.730000e+02	(0.000000e+00 5.000000e-07 5.000000e-07)	0
0.0001536778  	T             	5.729983e+02	(5.650000e-05 7.950000e-05 5.000000e-07)	1	5.730000e+02	(0.000000e+00 5.000000e-07 5.000000e-07)	0
0.000185598   	T             	5.729987e+02	(5.650000e-05 7.950000e-05 5.000000e-07)	1	5.730000e+02	(0.000000e+00 5.000000e-07 5.000000e-07)	0
0.0002238998  	T             	5.729990e+02	(5.650000e-05 7.950000e-05 5.000000e-07)	1	5.730000e+02	(0.000000e+00 5.000000e-07 5.000000e-07)	0
0.0002698584  	T             	5.729992e+02	(3.315000e-04 7.950000e-05 5.000000e-07)	6	5.730001e+02	(1.005000e-04 3.050000e-05 5.000000e-07)	1
0.0003249883  	T             	5.729993e+02	(3.465000e-04 7.950000e-05 5.000000e-07)	6	5.730002e+02	(1.005000e-04 3.050000e-05 5.000000e-07)	1
0.0003911297  	T             	5.729993e+02	(3.725000e-04 5.000000e-07 5.000000e-07)	7	5.730004e+02	(1.005000e-04 3.050000e-05 5.000000e-07)	1
0.0004704993  	T             	5.729993e+02	(4.185000e-04 7.050000e-05 5.000000e-07)	7	5.730006e+02	(1.005000e-04 3.050000e-05 5.000000e-07)	1
0.0005657429  	T             	5.729994e+02	(4.195000e-04 7.550000e-05 5.000000e-07)	7	5.730010e+02	(1.005000e-04 3.050000e-05 5.000000e-07)	1
0.0006656768  	T             	5.729994e+02	(4.195000e-04 3.500000e-06 5.000000e-07)	7	5.730015e+02	(1.005000e-04 3.050000e-05 5.000000e-07)	1
0.0007656107  	T             	5.729994e+02	(4.195000e-04 3.500000e-06 5.000000e-07)	7	5.730019e+02	(1.005000e-04 3.050000e-05 5.000000e-07)	1
0.0008655446  	T             	5.729995e+02	(4.195000e-04 2.500000e-06 5.000000e-07)	7	5.730025e+02	(1.005000e-04 4.950000e-05 5.000000e-07)	1
0.0009654786  	T             	5.729995e+02	(4.195000e-04 2.500000e-06 5.000000e-07)	7	5.730030e+02	(1.005000e-04 4.950000e-05 5.000000e-07)	1
0.001065412   	T             	5.729995e+02	(4.195000e-04 2.500000e-06 5.000000e-07)	7	5.730036e+02	(1.005000e-04 4.950000e-05 5.000000e-07)	1
0.001165346   	T             	5.729996e+02	(4.195000e-04 2.500000e-06 5.000000e-07)	7	5.730043e+02	(1.005000e-04 4.950000e-05 5.000000e-07)	1
0.00126528    	T             	5.729996e+02	(4.195000e-04 2.500000e-06 5.000000e-07)	7	5.730049e+02	(1.005000e-04 4.950000e-05 5.000000e-07)	1
0.001365214   	T             	5.729997e+02	(4.195000e-04 7.850000e-05 5.000000e-07)	7	5.730056e+02	(1.005000e-04 4.950000e-05 5.000000e-07)	1
0.001465148   	T             	5.729998e+02	(4.195000e-04 1.500000e-06 5.000000e-07)	7	5.730063e+02	(1.005000e-04 4.950000e-05 5.000000e-07)	1
0.001565082   	T             	5.729998e+02	(4.195000e-04 1.500000e-06 5.000000e-07)	7	5.730070e+02	(1.005000e-04 3.050000e-05 5.000000e-07)	1
0.001665016   	T             	5.729999e+02	(4.195000e-04 7.850000e-05 5.000000e-07)	7	5.730077e+02	(1.005000e-04 3.050000e-05 5.000000e-07)	1
0.00176495    	T             	5.730000e+02	(4.195000e-04 1.500000e-06 5.000000e-07)	7	5.730084e+02	(1.005000e-04 3.050000e-05 5.000000e-07)	1
0.001864884   	T             	5.730000e+02	(0.000000e+00 5.000000e-07 5.000000e-07)	0	5.730092e+02	(1.005000e-04 3.050000e-05 5.000000e-07)	1
0.001964818   	T             	5.730000e+02	(0.000000e+00 5.000000e-07 5.000000e-07)	0	5.730100e+02	(1.005000e-04 3.050000e-05 5.000000e-07)	1
0.002064752   	T             	5.730000e+02	(0.000000e+00 5.000000e-07 5.000000e-07)	0	5.730107e+02	(1.005000e-04 3.050000e-05 5.000000e-07)	1
0.002164686   	T             	5.730000e+02	(0.000000e+00 5.000000e-07 5.000000e-07)	0	5.730115e+02	(1.005000e-04 3.050000e-05 5.000000e-07)	1
0.00226462    	T             	5.730000e+02	(0.000000e+00 5.000000e-07 5.000000e-07)	0	5.730123e+02	(1.005000e-04 3.050000e-05 5.000000e-07)	1
0.002364554   	T             	5.730000e+02	(0.000000e+00 5.000000e-07 5.000000e-07)	0	5.730131e+02	(1.005000e-04 3.050000e-05 5.000000e-07)	1
0.002464487   	T             	5.730000e+02	(0.000000e+00 5.000000e-07 5.000000e-07)	0	5.730139e+02	(1.005000e-04 3.050000e-05 5.000000e-07)	1
0.002564421   	T             	5.730000e+02	(0.000000e+00 5.000000e-07 5.000000e-07)	0	5.730147e+02	(1.005000e-04 3.050000e-05 5.000000e-07)	1
0.002664355   	T             	5.730000e+02	(0.000000e+00 5.000000e-07 5.000000e-07)	0	5.730155e+02	(1.005000e-04 3.050000e-05 5.000000e-07)	1
0.002764289   	T             	5.730000e+02	(0.000000e+00 5.000000e-07 5.000000e-07)	0	5.730163e+02	(1.005000e-04 3.050000e-05 5.000000e-07)	1
0.002864223   	T             	5.730000e+02	(0.000000e+00 5.000000e-07 5.000000e-07)	0	5.730171e+02	(1.005000e-04 3.050000e-05 5.000000e-07)	1
0.002964157   	T             	5.730000e+02	(0.000000e+00 5.000000e-07 5.000000e-07)	0	5.730179e+02	(1.005000e-04 3.050000e-05 5.000000e-07)	1
0.003064091   	T             	5.730000e+02	(0.000000e+00 5.000000e-07 5.000000e-07)	0	5.730187e+02	(1.005000e-04 3.050000e-05 5.000000e-07)	1
0.003164025   	T             	5.730000e+02	(0.000000e+00 5.000000e-07 5.000000e-07)	0	5.730196e+02	(1.005000e-04 3.050000e-05 5.000000e-07)	1
0.003263959   	T             	5.730000e+02	(0.000000e+00 5.000000e-07 5.000000e-07)	0	5.730204e+02	(1.005000e-04 3.050000e-05 5.000000e-07)	1
0.003363893   	T             	5.730000e+02	(0.000000e+00 5.000000e-07 5.000000e-07)	0	5.730212e+02	(1.005000e-04 4.950000e-05 5.000000e-07)	1
0.003463827   	T             	5.730000e+02	(0.000000e+00 5.000000e-07 5.000000e-07)	0	5.730221e+02	(1.005000e-04 4.950000e-05 5.000000e-07)	1
0.003563761   	T             	5.730000e+02	(0.000000e+00 5.000000e-07 5.000000e-07)	0	5.730229e+02	(1.005000e-04 4.950000e-05 5.000000e-07)	1
0.003663695   	T             	5.730000e+02	(0.000000e+00 5.000000e-07 5.000000e-07)	0	5.730237e+02	(1.005000e-04 4.950000e-05 5.000000e-07)	1
0.003763629   	T             	5.730000e+02	(0.000000e+00 5.000000e-07 5.000000e-07)	0	5.730246e+02	(1.005000e-04 4.950000e-05 5.000000e-07)	1
0.003863562   	T             	5.730000e+02	(0.000000e+00 5.000000e-07 5.000000e-07)	0	5.730254e+02	(1.005000e-04 4.950000e-05 5.000000e-07)	1
0.003963496   	T             	5.730000e+02	(0.000000e+00 5.000000e-07 5.000000e-07)	0	5.730263e+02	(1.005000e-04 4.950000e-05 5.000000e-07)	1
0.00406343    	T             	5.730000e+02	(0.000000e+00 5.000000e-07 5.000000e-07)	0	5.730271e+02	(1.005000e-04 4.950000e-05 5.000000e-07)	1
0.004163364   	T             	5.730000e+02	(0.000000e+00 5.000000e-07 5.000000e-07)	0	5.730279e+02	(1.195000e-04 4.950000e-05 5.000000e-07)	3
0.004263298   	T             	5.730000e+02	(0.000000e+00 5.000000e-07 5.000000e-07)	0	5.730288e+02	(1.195000e-04 4.950000e-05 5.000000e-07)	3
0.004363232   	T             	5.730000e+02	(0.000000e+00 5.000000e-07 5.000000e-07)	0	5.730297e+02	(1.195000e-04 4.950000e-05 5.000000e-07)	3
0.004463166   	T             	5.730000e+02	(0.000000e+00 5.000000e-07 5.000000e-07)	0	5.730305e+02	(1.195000e-04 4.950000e-05 5.000000e-07)	3
0.0045631     	T             	5.730000e+02	(0.000000e+00 5.000000e-07 5.000000e-07)	0	5.730314e+02	(1.195000e-04 4.950000e-05 5.000000e-07)	3
0.004663034   	T             	5.730000e+02	(0.000000e+00 5.000000e-07 5.000000e-07)	0	5.730322e+02	(1.195000e-04 4.950000e-05 5.000000e-07)	3
0.004762968   	T             	5.730000e+02	(0.000000e+00 5.000000e-07 5.000000e-07)	0	5.730331e+02	(1.195000e-04 4.950000e-05 5.000000e-07)	3
0.004862902   	T             	5.730000e+02	(0.000000e+00 5.000000e-07 5.000000e-07)	0	5.730339e+02	(1.195000e-04 4.950000e-05 5.000000e-07)	3
0.004962836   	T             	5.730000e+02	(0.000000e+00 5.000000e-07 5.000000e-07)	0	5.730348e+02	(1.195000e-04 4.950000e-05 5.000000e-07)	3
0.00506277    	T             	5.730000e+02	(0.000000e+00 5.000000e-07 5.000000e-07)	0	5.730357e+02	(1.195000e-04 4.950000e-05 5.000000e-07)	3
0.005162703   	T             	5.730000e+02	(0.000000e+00 5.000000e-07 5.000000e-07)	0	5.730365e+02	(1.195000e-04 4.950000e-05 5.000000e-07)	3
0.005262637   	T             	5.730000e+02	(0.000000e+00 5.000000e-07 5.000000e-07)	0	5.730374e+02	(1.195000e-04 4.950000e-05 5.000000e-07)	3
0.005362571   	T             	5.730000e+02	(0.000000e+00 5.000000e-07 5.000000e-07)	0	5.730382e+02	(1.195000e-04 4.950000e-05 5.000000e-07)	3
0.005462505   	T             	5.730000e+02	(0.000000e+00 5.000000e-07 5.000000e-07)	0	5.730391e+02	(1.195000e-04 4.950000e-05 5.000000e-07)	3
0.005562439   	T             	5.730000e+02	(0.000000e+00 5.000000e-07 5.000000e-07)	0	5.730400e+02	(1.195000e-04 4.950000e-05 5.000000e-07)	3
0.005662373   	T             	5.730000e+02	(0.000000e+00 5.000000e-07 5.000000e-07)	0	5.730408e+02	(1.195000e-04 4.950000e-05 5.000000e-07)	3
0.005762307   	T             	5.730000e+02	(0.000000e+00 5.000000e-07 5.000000e-07)	0	5.730417e+02	(1.195000e-04 4.950000e-05 5.000000e-07)	3
0.005862241   	T             	5.730000e+02	(0.000000e+00 5.000000e-07 5.000000e-07)	0	5.730426e+02	(1.195000e-04 4.950000e-05 5.000000e-07)	3
0.005962175   	T             	5.730000e+02	(0.000000e+00 5.000000e-07 5.000000e-07)	0	5.730434e+02	(1.195000e-04 3.050000e-05 5.000000e-07)	3
0.006062109   	T             	5.730000e+02	(0.000000e+00 5.000000e-07 5.000000e-07)	0	5.730443e+02	(1.195000e-04 4.950000e-05 5.000000e-07)	3
0.006162043   	T             	5.730000e+02	(0.000000e+00 5.000000e-07 5.000000e-07)	0	5.730452e+02	(1.195000e-04 4.950000e-05 5.000000e-07)	3
0.006261977   	T             	5.730000e+02	(0.000000e+00 5.000000e-07 5.000000e-07)	0	5.730460e+02	(1.195000e-04 4.950000e-05 5.000000e-07)	3
0.006361911   	T             	5.730000e+02	(0.000000e+00 5.000000e-07 5.000000e-07)	0	5.730469e+02	(1.195000e-04 3.050000e-05 5.000000e-07)	3
0.006461845   	T             	5.730000e+02	(0.000000e+00 5.000000e-07 5.000000e-07)	0	5.730478e+02	(1.195000e-04 4.950000e-05 5.000000e-07)	3
0.006561778   	T             	5.730000e+02	(0.000000e+00 5.000000e-07 5.000000e-07)	0	5.730486e+02	(1.195000e-04 3.050000e-05 5.000000e-07)	3
0.006661712   	T             	5.730000e+02	(0.000000e+00 5.000000e-07 5.000000e-07)	0	5.730495e+02	(1.195000e-04 4.950000e-05 5.000000e-07)	3
0.006761646   	T             	5.730000e+02	(0.000000e+00 5.000000e-07 5.000000e-07)	0	5.730504e+02	(1.195000e-04 4.950000e-05 5.000000e-07)	3
0.00686158    	T             	5.730000e+02	(0.000000e+00 5.000000e-07 5.000000e-07)	0	5.730513e+02	(1.195000e-04 4.950000e-05 5.000000e-07)	3
0.006961514   	T             	5.730000e+02	(0.000000e+00 5.000000e-07 5.000000e-07)	0	5.730521e+02	(1.195000e-04 4.950000e-05 5.000000e-07)	3
0.007061448   	T             	5.730000e+02	(0.000000e+00 5.000000e-07 5.000000e-07)	0	5.730530e+02	(1.195000e-04 4.950000e-05 5.000000e-07)	3
0.007161382   	T             	5.730000e+02	(0.000000e+00 5.000000e-07 5.000000e-07)	0	5.730539e+02	(1.195000e-04 3.050000e-05 5.000000e-07)	3
0.007261316   	T             	5.730000e+02	(0.000000e+00 5.000000e-07 5.000000e-07)	0	5.730548e+02	(1.195000e-04 3.050000e-05 5.000000e-07)	3
0.00736125    	T             	5.730000e+02	(0.000000e+00 5.000000e-07 5.000000e-07)	0	5.730556e+02	(1.195000e-04 3.050000e-05 5.000000e-07)	3
0.007461184   	T             	5.730000e+02	(0.000000e+00 5.000000e-07 5.000000e-07)	0	5.730565e+02	(1.195000e-04 3.050000e-05 5.000000e-07)	3
0.007561118   	T             	5.730000e+02	(0.000000e+00 5.000000e-07 5.000000e-07)	0	5.730574e+02	(1.195000e-04 3.050000e-05 5.000000e-07)	3
0.007661052   	T             	5.730000e+02	(0.000000e+00 5.000000e-07 5.000000e-07)	0	5.730583e+02	(1.195000e-04 3.050000e-05 5.000000e-07)	3
0.007760986   	T             	5.730000e+02	(0.000000e+00 5.000000e-07 5.000000e-07)	0	5.730591e+02	(1.195000e-04 3.050000e-05 5.000000e-07)	3
0.00786092    	T             	5.730000e+02	(0.000000e+00 5.000000e-07 5.000000e-07)	0	5.730600e+02	(1.195000e-04 3.050000e-05 5.000000e-07)	3
0.007960853   	T             	5.730000e+02	(0.000000e+00 5.000000e-07 5.000000e-07)	0	5.730609e+02	(1.195000e-04 3.050000e-05 5.000000e-07)	3
0.008060787   	T             	5.730000e+02	(0.000000e+00 5.000000e-07 5.000000e-07)	0	5.730618e+02	(1.195000e-04 3.050000e-05 5.000000e-07)	3
0.008160721   	T             	5.730000e+02	(0.000000e+00 5.000000e-07 5.000000e-07)	0	5.730627e+02	(1.195000e-04 3.050000e-05 5.000000e-07)	3
0.008260655   	T             	5.730000e+02	(0.000000e+00 5.000000e-07 5.000000e-07)	0	5.730635e+02	(1.195000e-04 4.950000e-05 5.000000e-07)	3
0.008360589   	T             	5.730000e+02	(0.000000e+00 5.000000e-07 5.000000e-07)	0	5.730644e+02	(1.195000e-04 4.950000e-05 5.000000e-07)	3
0.008460523   	T             	5.730000e+02	(0.000000e+00 5.000000e-07 5.000000e-07)	0	5.730653e+02	(1.195000e-04 4.950000e-05 5.000000e-07)	3
0.008560457   	T             	5.730000e+02	(0.000000e+00 5.000000e-07 5.000000e-07)	0	5.730662e+02	(1.195000e-04 3.050000e-05 5.000000e-07)	3
0.008660391   	T             	5.730000e+02	(0.000000e+00 5.000000e-07 5.000000e-07)	0	5.730671e+02	(1.195000e-04 4.950000e-05 5.000000e-07)	3
0.008760325   	T             	5.730000e+02	(0.000000e+00 5.000000e-07 5.000000e-07)	0	5.730679e+02	(1.195000e-04 4.950000e-05 5.000000e-07)	3
0.008860259   	T             	5.730000e+02	(0.000000e+00 5.000000e-07 5.000000e-07)	0	5.730688e+02	(1.195000e-04 3.050000e-05 5.000000e-07)	3
0.008960193   	T             	5.730000e+02	(0.000000e+00 5.000000e-07 5.000000e-07)	0	5.730697e+02	(1.195000e-04 3.050000e-05 5.000000e-07)	3
0.009060127   	T             	5.730000e+02	(0.000000e+00 5.000000e-07 5.000000e-07)	0	5.730706e+02	(1.195000e-04 3.050000e-05 5.000000e-07)	3
0.009160061   	T             	5.730000e+02	(0.000000e+00 5.000000e-07 5.000000e-07)	0	5.730715e+02	(1.195000e-04 3.050000e-05 5.000000e-07)	3
0.009259994   	T             	5.730000e+02	(0.000000e+00 5.000000e-07 5.000000e-07)	0	5.730724e+02	(1.195000e-04 3.050000e-05 5.000000e-07)	3
0.009359928   	T             	5.730000e+02	(0.000000e+00 5.000000e-07 5.000000e-07)	0	5.730733e+02	(1.195000e-04 3.050000e-05 5.000000e-07)	3
0.009459862   	T             	5.730000e+02	(0.000000e+00 5.000000e-07 5.000000e-07)	0	5.730741e+02	(1.195000e-04 4.950000e-05 5.000000e-07)	3
0.009559796   	T             	5.730000e+02	(0.000000e+00 5.000000e-07 5.000000e-07)	0	5.730750e+02	(1.195000e-04 3.050000e-05 5.000000e-07)	3
0.00965973    	T             	5.730000e+02	(0.000000e+00 5.000000e-07 5.000000e-07)	0	5.730759e+02	(1.195000e-04 3.050000e-05 5.000000e-07)	3
0.009759664   	T             	5.730000e+02	(0.000000e+00 5.000000e-07 5.000000e-07)	0	5.730768e+02	(1.405000e-04 3.050000e-05 5.000000e-07)	3
0.009859598   	T             	5.730000e+02	(0.000000e+00 5.000000e-07 5.000000e-07)	0	5.730779e+02	(1.405000e-04 3.050000e-05 5.000000e-07)	3
0.009959532   	T             	5.730000e+02	(0.000000e+00 5.000000e-07 5.000000e-07)	0	5.730789e+02	(1.405000e-04 3.050000e-05 5.000000e-07)	3
0.01005947    	T             	5.730000e+02	(0.000000e+00 5.000000e-07 5.000000e-07)	0	5.730799e+02	(1.405000e-04 3.050000e-05 5.000000e-07)	3
0.0101594     	T             	5.730000e+02	(0.000000e+00 5.000000e-07 5.000000e-07)	0	5.730809e+02	(1.405000e-04 3.050000e-05 5.000000e-07)	3
0.01025933    	T             	5.730000e+02	(0.000000e+00 5.000000e-07 5.000000e-07)	0	5.730820e+02	(1.405000e-04 3.050000e-05 5.000000e-07)	3
0.01035927    	T             	5.730000e+02	(0.000000e+00 5.000000e-07 5.000000e-07)	0	5.730830e+02	(1.405000e-04 3.050000e-05 5.000000e-07)	3
0.0104592     	T             	5.730000e+02	(0.000000e+00 5.000000e-07 5.000000e-07)	0	5.730840e+02	(1.405000e-04 3.050000e-05 5.000000e-07)	3
0.01055914    	T             	5.730000e+02	(0.000000e+00 5.000000e-07 5.000000e-07)	0	5.730851e+02	(1.405000e-04 3.050000e-05 5.000000e-07)	3
0.01065907    	T             	5.730000e+02	(0.000000e+00 5.000000e-07 5.000000e-07)	0	5.730861e+02	(1.405000e-04 3.050000e-05 5.000000e-07)	3
0.010759      	T             	5.730000e+02	(0.000000e+00 5.000000e-07 5.000000e-07)	0	5.730871e+02	(1.405000e-04 3.050000e-05 5.000000e-07)	3
0.01085894    	T             	5.730000e+02	(0.000000e+00 5.000000e-07 5.000000e-07)	0	5.730882e+02	(1.405000e-04 4.950000e-05 5.000000e-07)	3
0.01095887    	T             	5.730000e+02	(0.000000e+00 5.000000e-07 5.000000e-07)	0	5.730892e+02	(1.405000e-04 3.050000e-05 5.000000e-07)	3
0.01105881    	T             	5.730000e+02	(0.000000e+00 5.000000e-07 5.000000e-07)	0	5.730903e+02	(1.405000e-04 3.050000e-05 5.000000e-07)	3
0.01115874    	T             	5.730000e+02	(0.000000e+00 5.000000e-07 5.000000e-07)	0	5.730913e+02	(1.405000e-04 3.050000e-05 5.000000e-07)	3
0.01125867    	T             	5.730000e+02	(0.000000e+00 5.000000e-07 5.000000e-07)	0	5.730923e+02	(1.405000e-04 3.050000e-05 5.000000e-07)	3
0.01135861    	T             	5.730000e+02	(0.000000e+00 5.000000e-07 5.000000e-07)	0	5.730934e+02	(1.405000e-04 3.050000e-05 5.000000e-07)	3
0.01145854    	T             	5.730000e+02	(0.000000e+00 5.000000e-07 5.000000e-07)	0	5.730944e+02	(1.405000e-04 3.050000e-05 5.000000e-07)	3
0.01155847    	T             	5.730000e+02	(0.000000e+00 5.000000e-07 5.000000e-07)	0	5.730955e+02	(1.405000e-04 3.050000e-05 5.000000e-07)	3
0.01165841    	T             	5.730000e+02	(0.000000e+00 5.000000e-07 5.000000e-07)	0	5.730965e+02	(1.405000e-04 3.050000e-05 5.000000e-07)	3
0.01175834    	T             	5.730000e+02	(0.000000e+00 5.000000e-07 5.000000e-07)	0	5.730976e+02	(1.405000e-04 3.050000e-05 5.000000e-07)	3
0.01185828    	T             	5.730000e+02	(0.000000e+00 5.000000e-07 5.000000e-07)	0	5.730986e+02	(1.405000e-04 4.950000e-05 5.000000e-07)	3
0.01195821    	T             	5.730000e+02	(0.000000e+00 5.000000e-07 5.000000e-07)	0	5.730997e+02	(1.405000e-04 3.050000e-05 5.000000e-07)	3
0.01205814    	T             	5.730000e+02	(0.000000e+00 5.000000e-07 5.000000e-07)	0	5.731008e+02	(1.405000e-04 4.950000e-05 5.000000e-07)	3
0.01215808    	T             	5.730000e+02	(0.000000e+00 5.000000e-07 5.000000e-07)	0	5.731018e+02	(1.405000e-04 3.050000e-05 5.000000e-07)	3
0.01225801    	T             	5.730000e+02	(0.000000e+00 5.000000e-07 5.000000e-07)	0	5.731029e+02	(1.405000e-04 3.050000e-05 5.000000e-07)	3
0.01235795    	T             	5.730000e+02	(0.000000e+00 5.000000e-07 5.000000e-07)	0	5.731039e+02	(1.405000e-04 3.050000e-05 5.000000e-07)	3
0.01245788    	T             	5.730000e+02	(0.000000e+00 5.000000e-07 5.000000e-07)	0	5.731050e+02	(1.405000e-04 4.950000e-05 5.000000e-07)	3
0.01255781    	T             	5.730000e+02	(0.000000e+00 5.000000e-07 5.000000e-07)	0	5.731061e+02	(1.405000e-04 4.950000e-05 5.000000e-07)	3
0.01265775    	T             	5.730000e+02	(0.000000e+00 5.000000e-07 5.000000e-07)	0	5.731071e+02	(1.405000e-04 3.050000e-05 5.000000e-07)	3
0.01275768    	T             	5.730000e+02	(0.000000e+00 5.000000e-07 5.000000e-07)	0	5.731082e+02	(1.405000e-04 4.950000e-05 5.000000e-07)	3
0.01285762    	T             	5.730000e+02	(0.000000e+00 5.000000e-07 5.000000e-07)	0	5.731092e+02	(1.405000e-04 3.050000e-05 5.000000e-07)	3
0.01295755    	T             	5.730000e+02	(0.000000e+00 5.000000e-07 5.000000e-07)	0	5.731103e+02	(1.405000e-04 3.050000e-05 5.000000e-07)	3
0.01305748    	T             	5.730000e+02	(0.000000e+00 5.000000e-07 5.000000e-07)	0	5.731114e+02	(1.595000e-04 3.050000e-05 5.000000e-07)	2
0.01315742    	T             	5.730000e+02	(0.000000e+00 5.000000e-07 5.000000e-07)	0	5.731125e+02	(1.595000e-04 4.950000e-05 5.000000e-07)	2
0.01325735    	T             	5.730000e+02	(0.000000e+00 5.000000e-07 5.000000e-07)	0	5.731135e+02	(1.595000e-04 3.050000e-05 5.000000e-07)	2
0.01335729    	T             	5.730000e+02	(0.000000e+00 5.000000e-07 5.000000e-07)	0	5.731146e+02	(1.595000e-04 3.050000e-05 5.000000e-07)	2
0.01345722    	T             	5.730000e+02	(0.000000e+00 5.000000e-07 5.000000e-07)	0	5.731157e+02	(1.595000e-04 3.050000e-05 5.000000e-07)	2
0.01355715    	T             	5.730000e+02	(0.000000e+00 5.000000e-07 5.000000e-07)	0	5.731168e+02	(1.595000e-04 3.050000e-05 5.000000e-07)	2
0.01365709    	T             	5.730000e+02	(0.000000e+00 5.000000e-07 5.000000e-07)	0	5.731178e+02	(1.595000e-04 3.050000e-05 5.000000e-07)	2
0.01375702    	T             	5.730000e+02	(0.000000e+00 5.000000e-07 5.000000e-07)	0	5.731189e+02	(1.595000e-04 3.050000e-05 5.000000e-07)	2
0.01385696    	T             	5.730000e+02	(0.000000e+00 5.000000e-07 5.000000e-07)	0	5.731200e+02	(1.595000e-04 3.050000e-05 5.000000e-07)	2
0.01395689    	T             	5.730000e+02	(0.000000e+00 5.000000e-07 5.000000e-07)	0	5.731211e+02	(1.595000e-04 3.050000e-05 5.000000e-07)	2
0.01405682    	T             	5.730000e+02	(0.000000e+00 5.000000e-07 5.000000e-07)	0	5.731222e+02	(1.595000e-04 3.050000e-05 5.000000e-07)	2
0.01415676    	T             	5.730000e+02	(0.000000e+00 5.000000e-07 5.000000e-07)	0	5.731233e+02	(1.595000e-04 3.050000e-05 5.000000e-07)	2
0.01425669    	T             	5.730000e+02	(0.000000e+00 5.000000e-07 5.000000e-07)	0	5.731243e+02	(1.595000e-04 3.050000e-05 5.000000e-07)	2
0.01435662    	T             	5.730000e+02	(0.000000e+00 5.000000e-07 5.000000e-07)	0	5.731254e+02	(1.595000e-04 3.050000e-05 5.000000e-07)	2
0.01445656    	T             	5.730000e+02	(0.000000e+00 5.000000e-07 5.000000e-07)	0	5.731265e+02	(1.595000e-04 3.050000e-05 5.000000e-07)	2
0.01455649    	T             	5.730000e+02	(0.000000e+00 5.000000e-07 5.000000e-07)	0	5.731276e+02	(1.595000e-04 3.050000e-05 5.000000e-07)	2
0.01465643    	T             	5.730000e+02	(0.000000e+00 5.000000e-07 5.000000e-07)	0	5.731287e+02	(1.595000e-04 3.050000e-05 5.000000e-07)	2
0.01475636    	T             	5.730000e+02	(0.000000e+00 5.000000e-07 5.000000e-07)	0	5.731298e+02	(1.595000e-04 3.050000e-05 5.000000e-07)	2
0.01485629    	T             	5.730000e+02	(0.000000e+00 5.000000e-07 5.000000e-07)	0	5.731309e+02	(1.595000e-04 3.050000e-05 5.000000e-07)	2
0.01495623    	T             	5.730000e+02	(0.000000e+00 5.000000e-07 5.000000e-07)	0	5.731320e+02	(1.595000e-04 3.050000e-05 5.000000e-07)	2
0.01505616    	T             	5.730000e+02	(0.000000e+00 5.000000e-07 5.000000e-07)	0	5.731331e+02	(1.595000e-04 3.050000e-05 5.000000e-07)	2
0.0151561     	T             	5.730000e+02	(0.000000e+00 5.000000e-07 5.000000e-07)	0	5.731342e+02	(1.595000e-04 3.050000e-05 5.000000e-07)	2
0.01525603    	T             	5.730000e+02	(0.000000e+00 5.000000e-07 5.000000e-07)	0	5.731352e+02	(1.595000e-04 3.050000e-05 5.000000e-07)	2
0.01535596    	T             	5.730000e+02	(0.000000e+00 5.000000e-07 5.000000e-07)	0	5.731363e+02	(1.595000e-04 3.050000e-05 5.000000e-07)	2
0.0154559     	T             	5.730000e+02	(0.000000e+00 5.000000e-07 5.000000e-07)	0	5.731374e+02	(1.595000e-04 3.050000e-05 5.000000e-07)	2
0.01555583    	T             	5.730000e+02	(0.000000e+00 5.000000e-07 5.000000e-07)	0	5.731385e+02	(1.595000e-04 3.050000e-05 5.000000e-07)	2
0.01565577    	T             	5.730000e+02	(0.000000e+00 5.000000e-07 5.000000e-07)	0	5.731396e+02	(1.595000e-04 3.050000e-05 5.000000e-07)	2
0.0157557     	T             	5.730000e+02	(0.000000e+00 5.000000e-07 5.000000e-07)	0	5.731407e+02	(1.595000e-04 3.050000e-05 5.000000e-07)	2
0.01585563    	T             	5.730000e+02	(0.000000e+00 5.000000e-07 5.000000e-07)	0	5.731418e+02	(1.595000e-04 3.050000e-05 5.000000e-07)	2
0.01595557    	T             	5.730000e+02	(0.000000e+00 5.000000e-07 5.000000e-07)	0	5.731429e+02	(1.595000e-04 3.050000e-05 5.000000e-07)	2
0.0160555     	T             	5.730000e+02	(0.000000e+00 5.000000e-07 5.000000e-07)	0	5.731440e+02	(1.595000e-04 3.050000e-05 5.000000e-07)	2
0.01615544    	T             	5.730000e+02	(0.000000e+00 5.000000e-07 5.000000e-07)	0	5.731451e+02	(1.595000e-04 3.050000e-05 5.000000e-07)	2
0.01625537    	T             	5.730000e+02	(0.000000e+00 5.000000e-07 5.000000e-07)	0	5.731462e+02	(1.595000e-04 3.050000e-05 5.000000e-07)	2
0.0163553     	T             	5.730000e+02	(0.000000e+00 5.000000e-07 5.000000e-07)	0	5.731473e+02	(1.595000e-04 3.050000e-05 5.000000e-07)	2
0.01645524    	T             	5.730000e+02	(0.000000e+00 5.000000e-07 5.000000e-07)	0	5.731484e+02	(1.595000e-04 3.050000e-05 5.000000e-07)	2
0.01655517    	T             	5.730000e+02	(0.000000e+00 5.000000e-07 5.000000e-07)	0	5.731495e+02	(1.595000e-04 3.050000e-05 5.000000e-07)	2
0.01665511    	T             	5.730000e+02	(0.000000e+00 5.000000e-07 5.000000e-07)	0	5.731506e+02	(1.595000e-04 3.050000e-05 5.000000e-07)	2
0.01675504    	T             	5.730000e+02	(0.000000e+00 5.000000e-07 5.000000e-07)	0	5.731517e+02	(1.595000e-04 3.050000e-05 5.000000e-07)	2
0.01685497    	T             	5.730000e+02	(0.000000e+00 5.000000e-07 5.000000e-07)	0	5.731528e+02	(1.595000e-04 3.050000e-05 5.000000e-07)	2
0.01695491    	T             	5.730000e+02	(0.000000e+00 5.000000e-07 5.000000e-07)	0	5.731540e+02	(1.595000e-04 3.050000e-05 5.000000e-07)	2
0.01705484    	T             	5.730000e+02	(0.000000e+00 5.000000e-07 5.000000e-07)	0	5.731551e+02	(1.595000e-04 3.050000e-05 5.000000e-07)	2
0.01715477    	T             	5.730000e+02	(0.000000e+00 5.000000e-07 5.000000e-07)	0	5.731562e+02	(1.595000e-04 3.050000e-05 5.000000e-07)	2
0.01725471    	T             	5.730000e+02	(0.000000e+00 5.000000e-07 5.000000e-07)	0	5.731573e+02	(1.595000e-04 3.050000e-05 5.000000e-07)	2
0.01735464    	T             	5.730000e+02	(0.000000e+00 5.000000e-07 5.000000e-07)	0	5.731584e+02	(1.595000e-04 3.050000e-05 5.000000e-07)	2
0.01745458    	T             	5.730000e+02	(0.000000e+00 5.000000e-07 5.000000e-07)	0	5.731595e+02	(1.595000e-04 3.050000e-05 5.000000e-07)	2
0.01755451    	T             	5.730000e+02	(0.000000e+00 5.000000e-07 5.000000e-07)	0	5.731606e+02	(1.595000e-04 3.050000e-05 5.000000e-07)	2
0.01765444    	T             	5.730000e+02	(0.000000e+00 5.000000e-07 5.000000e-07)	0	5.731617e+02	(1.595000e-04 3.050000e-05 5.000000e-07)	2
0.01775438    	T             	5.730000e+02	(0.000000e+00 5.000000e-07 5.000000e-07)	0	5.731629e+02	(1.805000e-04 3.050000e-05 5.000000e-07)	2
0.01785431    	T             	5.730000e+02	(0.000000e+00 5.000000e-07 5.000000e-07)	0	5.731641e+02	(1.805000e-04 3.050000e-05 5.000000e-07)	2
0.01795425    	T             	5.730000e+02	(0.000000e+00 5.000000e-07 5.000000e-07)	0	5.731653e+02	(1.805000e-04 4.950000e-05 5.000000e-07)	2
0.01805418    	T             	5.730000e+02	(0.000000e+00 5.000000e-07 5.000000e-07)	0	5.731666e+02	(1.805000e-04 4.950000e-05 5.000000e-07)	2
0.01815411    	T             	5.730000e+02	(0.000000e+00 5.000000e-07 5.000000e-07)	0	5.731678e+02	(1.805000e-04 3.050000e-05 5.000000e-07)	2
0.01825405    	T             	5.730000e+02	(0.000000e+00 5.000000e-07 5.000000e-07)	0	5.731690e+02	(1.805000e-04 3.050000e-05 5.000000e-07)	2
0.01835398    	T             	5.730000e+02	(0.000000e+00 5.000000e-07 5.000000e-07)	0	5.731703e+02	(1.805000e-04 3.050000e-05 5.000000e-07)	2
0.01845392    	T             	5.730000e+02	(0.000000e+00 5.000000e-07 5.000000e-07)	0	5.731715e+02	(1.805000e-04 3.050000e-05 5.000000e-07)	2
0.01855385    	T             	5.730000e+02	(0.000000e+00 5.000000e-07 5.000000e-07)	0	5.731728e+02	(1.805000e-04 3.050000e-05 5.000000e-07)	2
0.01865378    	T             	5.730000e+02	(0.000000e+00 5.000000e-07 5.000000e-07)	0	5.731740e+02	(1.805000e-04 3.050000e-05 5.000000e-07)	2
0.01875372    	T             	5.730000e+02	(0.000000e+00 5.000000e-07 5.000000e-07)	0	5.731752e+02	(1.805000e-04 3.050000e-05 5.000000e-07)	2
0.01885365    	T             	5.730000e+02	(0.000000e+00 5.000000e-07 5.000000e-07)	0	5.731765e+02	(1.805000e-04 3.050000e-05 5.000000e-07)	2
0.01895359    	T             	5.730000e+02	(0.000000e+00 5.000000e-07 5.000000e-07)	0	5.731777e+02	(1.805000e-04 3.050000e-05 5.000000e-07)	2
0.01905352    	T             	5.730000e+02	(0.000000e+00 5.000000e-07 5.000000e-07)	0	5.731789e+02	(1.805000e-04 3.050000e-05 5.000000e-07)	2