# Field minima and maxima
# Time        	field         	min           	location(min) 	processor     	max           	location(max) 	processor     
1.199904e-06  	T             	5.729948e+02	(1.750000e-05 4.050000e-05 5.000000e-07)	0	5.730000e+02	(0.000000e+00 5.000000e-07 5.000000e-07)	0
2.639616e-06  	T             	5.729949e+02	(2.350000e-05 4.050000e-05 5.000000e-07)	0	5.730000e+02	(0.000000e+00 5.000000e-07 5.000000e-07)	0
4.367171e-06  	T             	5.729949e+02	(2.750000e-05 4.050000e-05 5.000000e-07)	0	5.730000e+02	(0.000000e+00 5.000000e-07 5.000000e-07)	0
6.440094e-06  	T             	5.729950e+02	(3.250000e-05 4.050000e-05 5.000000e-07)	0	5.730000e+02	(0.000000e+00 5.000000e-07 5.000000e-07)	0
8.927291e-06  	T             	5.729951e+02	(3.750000e-05 4.050000e-05 5.000000e-07)	0	5.730000e+02	(0.000000e+00 5.000000e-07 5.000000e-07)	0
1.191148e-05  	T             	5.729951e+02	(4.150000e-05 4.050000e-05 5.000000e-07)	0	5.730000e+02	(0.000000e+00 5.000000e-07 5.000000e-07)	0
1.549144e-05  	T             	5.729952e+02	(4.550000e-05 7.950000e-05 5.000000e-07)	0	5.730000e+02	(0.000000e+00 5.000000e-07 5.000000e-07)	0
1.978585e-05  	T             	5.729953e+02	(4.850000e-05 7.950000e-05 5.000000e-07)	0	5.730000e+02	(0.000000e+00 5.000000e-07 5.000000e-07)	0
2.493826e-05  	T             	5.729954e+02	(5.150000e-05 7.950000e-05 5.000000e-07)	0	5.730000e+02	(0.000000e+00 5.000000e-07 5.000000e-07)	0
3.11186e-05   	T             	5.729956e+02	(5.350000e-05 7.950000e-05 5.000000e-07)	1	5.730000e+02	(0.000000e+00 5.000000e-07 5.000000e-07)	0
3.853041e-05  	T             	5.729958e+02	(5.450000e-05 7.950000e-05 5.000000e-07)	1	5.730000e+02	(0.000000e+00 5.000000e-07 5.000000e-07)	0
4.742458e-05  	T             	5.729961e+02	(5.550000e-05 7.950000e-05 5.000000e-07)	1	5.730000e+02	(0.000000e+00 5.000000e-07 5.000000e-07)	0
5.809186e-05  	T             	5.729964e+02	(5.550000e-05 7.950000e-05 5.000000e-07)	1	5.730000e+02	(0.000000e+00 5.000000e-07 5.000000e-07)	0
7.088711e-05  	T             	5.729967e+02	(5.650000e-05 7.950000e-05 5.000000e-07)	1	5.730000e+02	(0.000000e+00 5.000000e-07 5.000000e-07)	0
8.62335e-05   	T             	5.729971e+02	(5.650000e-05 7.950000e-05 5.000000e-07)	1	5.730000e+02	(0.000000e+00 5.000000e-07 5.000000e-07)	0
0.0001046264  	T             	5.729975e+02	(5.650000e-05 7.950000e-05 5.000000e-07)	1	5.730000e+02	(0.000000e+00 5.000000e-07 5.000000e-07)	0
0.0001266651  	T             	5.729979e+02	(5.650000e-05 7.950000e-05 5.000000e-07)	1	5.730000e+02	(0.000000e+00 5.000000e-07 5.000000e-07)	0
0.0001530644  	T             	5.729983e+02	(5.650000e-05 7.950000e-05 5.000000e-07)	1	5.730000e+02	(0.000000e+00 5.000000e-07 5.000000e-07)	0
0.0001847265  	T             	5.729987e+02	(5.650000e-05 7.950000e-05 5.000000e-07)	1	5.730000e+02	(0.000000e+00 5.000000e-07 5.000000e-07)	0
0.0002226233  	T             	5.729990e+02	(5.550000e-05 7.950000e-05 5.000000e-07)	1	5.730001e+02	(1.005000e-04 3.350000e-05 5.000000e-07)	1
0.0002680995  	T             	5.729992e+02	(3.315000e-04 7.950000e-05 5.000000e-07)	6	5.730003e+02	(1.005000e-04 3.250000e-05 5.000000e-07)	1
0.0003224677  	T             	5.729993e+02	(3.455000e-04 5.000000e-07 5.000000e-07)	6	5.730007e+02	(1.005000e-04 3.250000e-05 5.000000e-07)	1
0.0003874176  	T             	5.729993e+02	(3.705000e-04 5.000000e-07 5.000000e-07)	7	5.730012e+02	(1.005000e-04 3.250000e-05 5.000000e-07)	1
0.0004649384  	T             	5.729993e+02	(4.185000e-04 9.500000e-06 5.000000e-07)	7	5.730021e+02	(1.005000e-04 3.250000e-05 5.000000e-07)	1
0.0005575118  	T             	5.729994e+02	(4.195000e-04 4.500000e-06 5.000000e-07)	7	5.730034e+02	(1.005000e-04 3.350000e-05 5.000000e-07)	1
0.0006569064  	T             	5.729994e+02	(4.195000e-04 7.650000e-05 5.000000e-07)	7	5.730050e+02	(1.005000e-04 3.350000e-05 5.000000e-07)	1
0.000756301   	T             	5.729994e+02	(4.195000e-04 2.500000e-06 5.000000e-07)	7	5.730069e+02	(1.005000e-04 4.550000e-05 5.000000e-07)	1
0.0008556956  	T             	5.729995e+02	(4.195000e-04 7.750000e-05 5.000000e-07)	7	5.730089e+02	(1.005000e-04 4.450000e-05 5.000000e-07)	1
0.0009550903  	T             	5.729995e+02	(4.195000e-04 2.500000e-06 5.000000e-07)	7	5.730112e+02	(1.005000e-04 4.350000e-05 5.000000e-07)	1
0.001054485   	T             	5.729996e+02	(4.195000e-04 7.850000e-05 5.000000e-07)	7	5.730137e+02	(1.005000e-04 4.050000e-05 5.000000e-07)	1
0.001153879   	T             	5.729997e+02	(4.195000e-04 1.500000e-06 5.000000e-07)	7	5.730163e+02	(1.005000e-04 4.050000e-05 5.000000e-07)	1
0.001253274   	T             	5.729998e+02	(4.195000e-04 1.500000e-06 5.000000e-07)	7	5.730190e+02	(1.005000e-04 3.950000e-05 5.000000e-07)	1
0.001352669   	T             	5.729999e+02	(4.195000e-04 7.850000e-05 5.000000e-07)	7	5.730219e+02	(1.005000e-04 3.950000e-05 5.000000e-07)	1
0.001452063   	T             	5.730000e+02	(0.000000e+00 5.000000e-07 5.000000e-07)	0	5.730248e+02	(1.005000e-04 3.950000e-05 5.000000e-07)	1
0.001551458   	T             	5.730000e+02	(0.000000e+00 5.000000e-07 5.000000e-07)	0	5.730279e+02	(1.015000e-04 4.050000e-05 5.000000e-07)	1
0.001650853   	T             	5.730000e+02	(0.000000e+00 5.000000e-07 5.000000e-07)	0	5.730310e+02	(1.015000e-04 3.950000e-05 5.000000e-07)	1
0.001750247   	T             	5.730000e+02	(0.000000e+00 5.000000e-07 5.000000e-07)	0	5.730342e+02	(1.015000e-04 3.950000e-05 5.000000e-07)	1
0.001849642   	T             	5.730000e+02	(0.000000e+00 5.000000e-07 5.000000e-07)	0	5.730375e+02	(1.015000e-04 3.950000e-05 5.000000e-07)	1
0.001949036   	T             	5.730000e+02	(0.000000e+00 5.000000e-07 5.000000e-07)	0	5.730408e+02	(1.015000e-04 3.950000e-05 5.000000e-07)	1
0.002048431   	T             	5.730000e+02	(0.000000e+00 5.000000e-07 5.000000e-07)	0	5.730442e+02	(1.015000e-04 3.950000e-05 5.000000e-07)	1
0.002147826   	T             	5.730000e+02	(0.000000e+00 5.000000e-07 5.000000e-07)	0	5.730476e+02	(1.015000e-04 3.950000e-05 5.000000e-07)	1
0.00224722    	T             	5.730000e+02	(0.000000e+00 5.000000e-07 5.000000e-07)	0	5.730511e+02	(1.015000e-04 4.050000e-05 5.000000e-07)	1
0.002346615   	T             	5.730000e+02	(0.000000e+00 5.000000e-07 5.000000e-07)	0	5.730546e+02	(1.025000e-04 4.050000e-05 5.000000e-07)	1
0.002446009   	T             	5.730000e+02	(0.000000e+00 5.000000e-07 5.000000e-07)	0	5.730582e+02	(1.025000e-04 4.050000e-05 5.000000e-07)	1
0.002545404   	T             	5.730000e+02	(0.000000e+00 5.000000e-07 5.000000e-07)	0	5.730617e+02	(1.025000e-04 4.050000e-05 5.000000e-07)	1
0.002644799   	T             	5.730000e+02	(0.000000e+00 5.000000e-07 5.000000e-07)	0	5.730653e+02	(1.025000e-04 3.950000e-05 5.000000e-07)	1
0.002744193   	T             	5.730000e+02	(0.000000e+00 5.000000e-07 5.000000e-07)	0	5.730690e+02	(1.025000e-04 4.050000e-05 5.000000e-07)	1
0.002843588   	T             	5.730000e+02	(0.000000e+00 5.000000e-07 5.000000e-07)	0	5.730726e+02	(1.025000e-04 4.050000e-05 5.000000e-07)	1
0.002942983   	T             	5.730000e+02	(0.000000e+00 5.000000e-07 5.000000e-07)	0	5.730763e+02	(1.035000e-04 4.050000e-05 5.000000e-07)	1
0.003042377   	T             	5.730000e+02	(0.000000e+00 5.000000e-07 5.000000e-07)	0	5.730800e+02	(1.035000e-04 4.050000e-05 5.000000e-07)	1
0.003141772   	T             	5.730000e+02	(0.000000e+00 5.000000e-07 5.000000e-07)	0	5.730837e+02	(1.035000e-04 4.050000e-05 5.000000e-07)	1
0.003241166   	T             	5.730000e+02	(0.000000e+00 5.000000e-07 5.000000e-07)	0	5.730874e+02	(1.035000e-04 3.950000e-05 5.000000e-07)	1
0.003340561   	T             	5.730000e+02	(0.000000e+00 5.000000e-07 5.000000e-07)	0	5.730912e+02	(1.045000e-04 3.950000e-05 5.000000e-07)	1
0.003439956   	T             	5.730000e+02	(0.000000e+00 5.000000e-07 5.000000e-07)	0	5.730949e+02	(1.045000e-04 4.050000e-05 5.000000e-07)	1
0.00353935    	T             	5.730000e+02	(0.000000e+00 5.000000e-07 5.000000e-07)	0	5.730987e+02	(1.045000e-04 4.050000e-05 5.000000e-07)	1
0.003638745   	T             	5.730000e+02	(0.000000e+00 5.000000e-07 5.000000e-07)	0	5.731025e+02	(1.055000e-04 4.050000e-05 5.000000e-07)	1
0.003738139   	T             	5.730000e+02	(0.000000e+00 5.000000e-07 5.000000e-07)	0	5.731063e+02	(1.055000e-04 4.050000e-05 5.000000e-07)	1
0.003837534   	T             	5.730000e+02	(0.000000e+00 5.000000e-07 5.000000e-07)	0	5.731101e+02	(1.065000e-04 4.050000e-05 5.000000e-07)	3
0.003936929   	T             	5.730000e+02	(0.000000e+00 5.000000e-07 5.000000e-07)	0	5.731139e+02	(1.065000e-04 4.050000e-05 5.000000e-07)	3
0.004036323   	T             	5.730000e+02	(0.000000e+00 5.000000e-07 5.000000e-07)	0	5.731177e+02	(1.075000e-04 3.950000e-05 5.000000e-07)	3
0.004135718   	T             	5.730000e+02	(0.000000e+00 5.000000e-07 5.000000e-07)	0	5.731215e+02	(1.075000e-04 4.050000e-05 5.000000e-07)	3
0.004235112   	T             	5.730000e+02	(0.000000e+00 5.000000e-07 5.000000e-07)	0	5.731253e+02	(1.085000e-04 4.050000e-05 5.000000e-07)	3
0.004334507   	T             	5.730000e+02	(0.000000e+00 5.000000e-07 5.000000e-07)	0	5.731292e+02	(1.095000e-04 3.950000e-05 5.000000e-07)	3
0.004433902   	T             	5.730000e+02	(0.000000e+00 5.000000e-07 5.000000e-07)	0	5.731330e+02	(1.105000e-04 3.950000e-05 5.000000e-07)	3
0.004533296   	T             	5.730000e+02	(0.000000e+00 5.000000e-07 5.000000e-07)	0	5.731369e+02	(1.115000e-04 4.050000e-05 5.000000e-07)	3
0.004632691   	T             	5.730000e+02	(0.000000e+00 5.000000e-07 5.000000e-07)	0	5.731407e+02	(1.125000e-04 3.950000e-05 5.000000e-07)	3
0.004732086   	T             	5.730000e+02	(0.000000e+00 5.000000e-07 5.000000e-07)	0	5.731446e+02	(1.125000e-04 3.950000e-05 5.000000e-07)	3
0.00483148    	T             	5.730000e+02	(0.000000e+00 5.000000e-07 5.000000e-07)	0	5.731485e+02	(1.135000e-04 4.050000e-05 5.000000e-07)	3
0.004930875   	T             	5.730000e+02	(0.000000e+00 5.000000e-07 5.000000e-07)	0	5.731524e+02	(1.135000e-04 4.050000e-05 5.000000e-07)	3
0.005030269   	T             	5.730000e+02	(0.000000e+00 5.000000e-07 5.000000e-07)	0	5.731562e+02	(1.145000e-04 3.950000e-05 5.000000e-07)	3
0.005129664   	T             	5.730000e+02	(0.000000e+00 5.000000e-07 5.000000e-07)	0	5.731601e+02	(1.145000e-04 4.050000e-05 5.000000e-07)	3
0.005229059   	T             	5.730000e+02	(0.000000e+00 5.000000e-07 5.000000e-07)	0	5.731640e+02	(1.145000e-04 3.950000e-05 5.000000e-07)	3
0.005328453   	T             	5.730000e+02	(0.000000e+00 5.000000e-07 5.000000e-07)	0	5.731679e+02	(1.155000e-04 3.950000e-05 5.000000e-07)	3
0.005427848   	T             	5.730000e+02	(0.000000e+00 5.000000e-07 5.000000e-07)	0	5.731718e+02	(1.155000e-04 3.950000e-05 5.000000e-07)	3
0.005527242   	T             	5.730000e+02	(0.000000e+00 5.000000e-07 5.000000e-07)	0	5.731757e+02	(1.155000e-04 4.050000e-05 5.000000e-07)	3
0.005626637   	T             	5.730000e+02	(0.000000e+00 5.000000e-07 5.000000e-07)	0	5.731796e+02	(1.155000e-04 3.950000e-05 5.000000e-07)	3
0.005726032   	T             	5.730000e+02	(0.000000e+00 5.000000e-07 5.000000e-07)	0	5.731835e+02	(1.165000e-04 3.950000e-05 5.000000e-07)	3
0.005825426   	T             	5.730000e+02	(0.000000e+00 5.000000e-07 5.000000e-07)	0	5.731874e+02	(1.165000e-04 4.050000e-05 5.000000e-07)	3
0.005924821   	T             	5.730000e+02	(0.000000e+00 5.000000e-07 5.000000e-07)	0	5.731914e+02	(1.165000e-04 3.950000e-05 5.000000e-07)	3
0.006024215   	T             	5.730000e+02	(0.000000e+00 5.000000e-07 5.000000e-07)	0	5.731953e+02	(1.165000e-04 4.050000e-05 5.000000e-07)	3
0.00612361    	T             	5.730000e+02	(0.000000e+00 5.000000e-07 5.000000e-07)	0	5.731992e+02	(1.165000e-04 4.050000e-05 5.000000e-07)	3
0.006223005   	T             	5.730000e+02	(0.000000e+00 5.000000e-07 5.000000e-07)	0	5.732031e+02	(1.165000e-04 4.050000e-05 5.000000e-07)	3
0.006322399   	T             	5.730000e+02	(0.000000e+00 5.000000e-07 5.000000e-07)	0	5.732071e+02	(1.165000e-04 4.050000e-05 5.000000e-07)	3
0.006421794   	T             	5.730000e+02	(0.000000e+00 5.000000e-07 5.000000e-07)	0	5.732110e+02	(1.175000e-04 3.950000e-05 5.000000e-07)	3
0.006521189   	T             	5.730000e+02	(0.000000e+00 5.000000e-07 5.000000e-07)	0	5.732149e+02	(1.175000e-04 4.050000e-05 5.000000e-07)	3
0.006620583   	T             	5.730000e+02	(0.000000e+00 5.000000e-07 5.000000e-07)	0	5.732189e+02	(1.175000e-04 4.050000e-05 5.000000e-07)	3
0.006719978   	T             	5.730000e+02	(0.000000e+00 5.000000e-07 5.000000e-07)	0	5.732228e+02	(1.175000e-04 4.050000e-05 5.000000e-07)	3
0.006819372   	T             	5.730000e+02	(0.000000e+00 5.000000e-07 5.000000e-07)	0	5.732268e+02	(1.175000e-04 4.050000e-05 5.000000e-07)	3
0.006918767   	T             	5.730000e+02	(0.000000e+00 5.000000e-07 5.000000e-07)	0	5.732307e+02	(1.175000e-04 4.050000e-05 5.000000e-07)	3
0.007018162   	T             	5.730000e+02	(0.000000e+00 5.000000e-07 5.000000e-07)	0	5.732347e+02	(1.175000e-04 4.050000e-05 5.000000e-07)	3
0.007117556   	T             	5.730000e+02	(0.000000e+00 5.000000e-07 5.000000e-07)	0	5.732386e+02	(1.175000e-04 4.050000e-05 5.000000e-07)	3
0.007216951   	T             	5.730000e+02	(0.000000e+00 5.000000e-07 5.000000e-07)	0	5.732426e+02	(1.175000e-04 4.050000e-05 5.000000e-07)	3
0.007316345   	T             	5.730000e+02	(0.000000e+00 5.000000e-07 5.000000e-07)	0	5.732466e+02	(1.175000e-04 3.950000e-05 5.000000e-07)	3
0.00741574    	T             	5.730000e+02	(0.000000e+00 5.000000e-07 5.000000e-07)	0	5.732505e+02	(1.185000e-04 3.950000e-05 5.000000e-07)	3
0.007515135   	T             	5.730000e+02	(0.000000e+00 5.000000e-07 5.000000e-07)	0	5.732545e+02	(1.185000e-04 4.050000e-05 5.000000e-07)	3
0.007614529   	T             	5.730000e+02	(0.000000e+00 5.000000e-07 5.000000e-07)	0	5.732585e+02	(1.185000e-04 3.950000e-05 5.000000e-07)	3
0.007713924   	T             	5.730000e+02	(0.000000e+00 5.000000e-07 5.000000e-07)	0	5.732625e+02	(1.185000e-04 3.950000e-05 5.000000e-07)	3
0.007813319   	T             	5.730000e+02	(0.000000e+00 5.000000e-07 5.000000e-07)	0	5.732664e+02	(1.185000e-04 4.050000e-05 5.000000e-07)	3
0.007912713   	T             	5.730000e+02	(0.000000e+00 5.000000e-07 5.000000e-07)	0	5.732704e+02	(1.185000e-04 4.050000e-05 5.000000e-07)	3
0.008012108   	T             	5.730000e+02	(0.000000e+00 5.000000e-07 5.000000e-07)	0	5.732744e+02	(1.185000e-04 3.950000e-05 5.000000e-07)	3
0.008111502   	T             	5.730000e+02	(0.000000e+00 5.000000e-07 5.000000e-07)	0	5.732784e+02	(1.185000e-04 4.050000e-05 5.000000e-07)	3
0.008210897   	T             	5.730000e+02	(0.000000e+00 5.000000e-07 5.000000e-07)	0	5.732824e+02	(1.185000e-04 3.950000e-05 5.000000e-07)	3
0.008310292   	T             	5.730000e+02	(0.000000e+00 5.000000e-07 5.000000e-07)	0	5.732864e+02	(1.185000e-04 3.950000e-05 5.000000e-07)	3
0.008409686   	T             	5.730000e+02	(0.000000e+00 5.000000e-07 5.000000e-07)	0	5.732904e+02	(1.185000e-04 3.950000e-05 5.000000e-07)	3
0.008509081   	T             	5.730000e+02	(0.000000e+00 5.000000e-07 5.000000e-07)	0	5.732944e+02	(1.185000e-04 4.050000e-05 5.000000e-07)	3
0.008608475   	T             	5.730000e+02	(0.000000e+00 5.000000e-07 5.000000e-07)	0	5.732984e+02	(1.185000e-04 3.950000e-05 5.000000e-07)	3
0.00870787    	T             	5.730000e+02	(0.000000e+00 5.000000e-07 5.000000e-07)	0	5.733024e+02	(1.185000e-04 3.950000e-05 5.000000e-07)	3
0.008807265   	T             	5.730000e+02	(0.000000e+00 5.000000e-07 5.000000e-07)	0	5.733064e+02	(1.185000e-04 3.950000e-05 5.000000e-07)	3
0.008906659   	T             	5.730000e+02	(0.000000e+00 5.000000e-07 5.000000e-07)	0	5.733104e+02	(1.195000e-04 3.950000e-05 5.000000e-07)	3
0.009006054   	T             	5.730000e+02	(0.000000e+00 5.000000e-07 5.000000e-07)	0	5.733144e+02	(1.195000e-04 4.050000e-05 5.000000e-07)	3
0.009105448   	T             	5.730000e+02	(0.000000e+00 5.000000e-07 5.000000e-07)	0	5.733185e+02	(1.195000e-04 4.050000e-05 5.000000e-07)	3
0.009204843   	T             	5.730000e+02	(0.000000e+00 5.000000e-07 5.000000e-07)	0	5.733225e+02	(1.195000e-04 4.050000e-05 5.000000e-07)	3
0.009304238   	T             	5.730000e+02	(0.000000e+00 5.000000e-07 5.000000e-07)	0	5.733265e+02	(1.195000e-04 4.050000e-05 5.000000e-07)	3
0.009403632   	T             	5.730000e+02	(0.000000e+00 5.000000e-07 5.000000e-07)	0	5.733305e+02	(1.195000e-04 4.050000e-05 5.000000e-07)	3
0.009503027   	T             	5.730000e+02	(0.000000e+00 5.000000e-07 5.000000e-07)	0	5.733346e+02	(1.195000e-04 4.050000e-05 5.000000e-07)	3
0.009602422   	T             	5.730000e+02	(0.000000e+00 5.000000e-07 5.000000e-07)	0	5.733386e+02	(1.195000e-04 4.050000e-05 5.000000e-07)	3
0.009701816   	T             	5.730000e+02	(0.000000e+00 5.000000e-07 5.000000e-07)	0	5.733427e+02	(1.195000e-04 4.050000e-05 5.000000e-07)	3
0.009801211   	T             	5.730000e+02	(0.000000e+00 5.000000e-07 5.000000e-07)	0	5.733467e+02	(1.195000e-04 4.050000e-05 5.000000e-07)	3
0.009900605   	T             	5.730000e+02	(0.000000e+00 5.000000e-07 5.000000e-07)	0	5.733508e+02	(1.405000e-04 4.050000e-05 5.000000e-07)	3
0.01          	T             	5.730000e+02	(0.000000e+00 5.000000e-07 5.000000e-07)	0	5.733555e+02	(1.405000e-04 4.050000e-05 5.000000e-07)	3
0.0101        	T             	5.730000e+02	(0.000000e+00 5.000000e-07 5.000000e-07)	0	5.733602e+02	(1.405000e-04 4.050000e-05 5.000000e-07)	3
0.0102        	T             	5.730000e+02	(0.000000e+00 5.000000e-07 5.000000e-07)	0	5.733649e+02	(1.405000e-04 4.050000e-05 5.000000e-07)	3
0.0103        	T             	5.730000e+02	(0.000000e+00 5.000000e-07 5.000000e-07)	0	5.733696e+02	(1.405000e-04 4.050000e-05 5.000000e-07)	3
0.0104        	T             	5.730000e+02	(0.000000e+00 5.000000e-07 5.000000e-07)	0	5.733743e+02	(1.405000e-04 3.950000e-05 5.000000e-07)	3
0.0105        	T             	5.730000e+02	(0.000000e+00 5.000000e-07 5.000000e-07)	0	5.733790e+02	(1.415000e-04 3.950000e-05 5.000000e-07)	3
0.0106        	T             	5.730000e+02	(0.000000e+00 5.000000e-07 5.000000e-07)	0	5.733838e+02	(1.415000e-04 4.050000e-05 5.000000e-07)	3
0.0107        	T             	5.730000e+02	(0.000000e+00 5.000000e-07 5.000000e-07)	0	5.733885e+02	(1.415000e-04 4.050000e-05 5.000000e-07)	3
0.0108        	T             	5.730000e+02	(0.000000e+00 5.000000e-07 5.000000e-07)	0	5.733933e+02	(1.415000e-04 4.050000e-05 5.000000e-07)	3
0.0109        	T             	5.730000e+02	(0.000000e+00 5.000000e-07 5.000000e-07)	0	5.733980e+02	(1.415000e-04 3.950000e-05 5.000000e-07)	3
0.011         	T             	5.730000e+02	(0.000000e+00 5.000000e-07 5.000000e-07)	0	5.734028e+02	(1.415000e-04 3.950000e-05 5.000000e-07)	3
0.0111        	T             	5.730000e+02	(0.000000e+00 5.000000e-07 5.000000e-07)	0	5.734076e+02	(1.415000e-04 4.050000e-05 5.000000e-07)	3
0.0112        	T             	5.730000e+02	(0.000000e+00 5.000000e-07 5.000000e-07)	0	5.734123e+02	(1.415000e-04 4.050000e-05 5.000000e-07)	3
0.0113        	T             	5.730000e+02	(0.000000e+00 5.000000e-07 5.000000e-07)	0	5.734171e+02	(1.415000e-04 4.050000e-05 5.000000e-07)	3
0.0114        	T             	5.730000e+02	(0.000000e+00 5.000000e-07 5.000000e-07)	0	5.734219e+02	(1.415000e-04 4.050000e-05 5.000000e-07)	3
0.0115        	T             	5.730000e+02	(0.000000e+00 5.000000e-07 5.000000e-07)	0	5.734267e+02	(1.415000e-04 4.050000e-05 5.000000e-07)	3
0.0116        	T             	5.730000e+02	(0.000000e+00 5.000000e-07 5.000000e-07)	0	5.734316e+02	(1.425000e-04 4.050000e-05 5.000000e-07)	3
0.0117        	T             	5.730000e+02	(0.000000e+00 5.000000e-07 5.000000e-07)	0	5.734364e+02	(1.425000e-04 3.950000e-05 5.000000e-07)	3
0.0118        	T             	5.730000e+02	(0.000000e+00 5.000000e-07 5.000000e-07)	0	5.734412e+02	(1.425000e-04 3.950000e-05 5.000000e-07)	3
0.0119        	T             	5.730000e+02	(0.000000e+00 5.000000e-07 5.000000e-07)	0	5.734461e+02	(1.425000e-04 3.950000e-05 5.000000e-07)	3
0.012         	T             	5.730000e+02	(0.000000e+00 5.000000e-07 5.000000e-07)	0	5.734509e+02	(1.425000e-04 4.050000e-05 5.000000e-07)	3
0.0121        	T             	5.730000e+02	(0.000000e+00 5.000000e-07 5.000000e-07)	0	5.734558e+02	(1.425000e-04 3.950000e-05 5.000000e-07)	3
0.0122        	T             	5.730000e+02	(0.000000e+00 5.000000e-07 5.000000e-07)	0	5.734606e+02	(1.425000e-04 3.950000e-05 5.000000e-07)	3
0.0123        	T             	5.730000e+02	(0.000000e+00 5.000000e-07 5.000000e-07)	0	5.734655e+02	(1.435000e-04 3.950000e-05 5.000000e-07)	3
0.0124        	T             	5.730000e+02	(0.000000e+00 5.000000e-07 5.000000e-07)	0	5.734704e+02	(1.435000e-04 3.950000e-05 5.000000e-07)	3
0.0125        	T             	5.730000e+02	(0.000000e+00 5.000000e-07 5.000000e-07)	0	5.734752e+02	(1.435000e-04 4.050000e-05 5.000000e-07)	3
0.0126        	T             	5.730000e+02	(0.000000e+00 5.000000e-07 5.000000e-07)	0	5.734801e+02	(1.435000e-04 3.950000e-05 5.000000e-07)	3
0.0127        	T             	5.730000e+02	(0.000000e+00 5.000000e-07 5.000000e-07)	0	5.734850e+02	(1.435000e-04 3.950000e-05 5.000000e-07)	3
0.0128        	T             	5.730000e+02	(0.000000e+00 5.000000e-07 5.000000e-07)	0	5.734899e+02	(1.445000e-04 3.950000e-05 5.000000e-07)	3
0.0129        	T             	5.730000e+02	(0.000000e+00 5.000000e-07 5.000000e-07)	0	5.734948e+02	(1.445000e-04 3.950000e-05 5.000000e-07)	3
0.013         	T             	5.730000e+02	(0.000000e+00 5.000000e-07 5.000000e-07)	0	5.734998e+02	(1.455000e-04 4.050000e-05 5.000000e-07)	3
0.0131        	T             	5.730000e+02	(0.000000e+00 5.000000e-07 5.000000e-07)	0	5.735047e+02	(1.455000e-04 4.050000e-05 5.000000e-07)	3
0.0132        	T             	5.730000e+02	(0.000000e+00 5.000000e-07 5.000000e-07)	0	5.735096e+02	(1.465000e-04 3.950000e-05 5.000000e-07)	3
0.0133        	T             	5.730000e+02	(0.000000e+00 5.000000e-07 5.000000e-07)	0	5.735145e+02	(1.475000e-04 4.050000e-05 5.000000e-07)	3
0.0134        	T             	5.730000e+02	(0.000000e+00 5.000000e-07 5.000000e-07)	0	5.735195e+02	(1.505000e-04 3.650000e-05 5.000000e-07)	3
0.0135        	T             	5.730000e+02	(0.000000e+00 5.000000e-07 5.000000e-07)	0	5.735244e+02	(1.535000e-04 3.950000e-05 5.000000e-07)	3
0.0136        	T             	5.730000e+02	(0.000000e+00 5.000000e-07 5.000000e-07)	0	5.735294e+02	(1.545000e-04 4.050000e-05 5.000000e-07)	3
0.0137        	T             	5.730000e+02	(0.000000e+00 5.000000e-07 5.000000e-07)	0	5.735344e+02	(1.555000e-04 4.050000e-05 5.000000e-07)	3
0.0138        	T             	5.730000e+02	(0.000000e+00 5.000000e-07 5.000000e-07)	0	5.735393e+02	(1.555000e-04 3.950000e-05 5.000000e-07)	3
0.0139        	T             	5.730000e+02	(0.000000e+00 5.000000e-07 5.000000e-07)	0	5.735443e+02	(1.555000e-04 3.950000e-05 5.000000e-07)	3
0.014         	T             	5.730000e+02	(0.000000e+00 5.000000e-07 5.000000e-07)	0	5.735493e+02	(1.565000e-04 3.950000e-05 5.000000e-07)	3
0.0141        	T             	5.730000e+02	(0.000000e+00 5.000000e-07 5.000000e-07)	0	5.735543e+02	(1.565000e-04 4.050000e-05 5.000000e-07)	3
0.0142        	T             	5.730000e+02	(0.000000e+00 5.000000e-07 5.000000e-07)	0	5.735593e+02	(1.565000e-04 4.050000e-05 5.000000e-07)	3
0.0143        	T             	5.730000e+02	(0.000000e+00 5.000000e-07 5.000000e-07)	0	5.735643e+02	(1.565000e-04 3.950000e-05 5.000000e-07)	3
0.0144        	T             	5.730000e+02	(0.000000e+00 5.000000e-07 5.000000e-07)	0	5.735693e+02	(1.565000e-04 4.050000e-05 5.000000e-07)	3
0.0145        	T             	5.730000e+02	(0.000000e+00 5.000000e-07 5.000000e-07)	0	5.735743e+02	(1.575000e-04 4.050000e-05 5.000000e-07)	2
0.0146        	T             	5.730000e+02	(0.000000e+00 5.000000e-07 5.000000e-07)	0	5.735793e+02	(1.575000e-04 3.950000e-05 5.000000e-07)	2
0.0147        	T             	5.730000e+02	(0.000000e+00 5.000000e-07 5.000000e-07)	0	5.735843e+02	(1.575000e-04 4.050000e-05 5.000000e-07)	2
0.0148        	T             	5.730000e+02	(0.000000e+00 5.000000e-07 5.000000e-07)	0	5.735894e+02	(1.575000e-04 3.950000e-05 5.000000e-07)	2
0.0149        	T             	5.730000e+02	(0.000000e+00 5.000000e-07 5.000000e-07)	0	5.735944e+02	(1.575000e-04 3.950000e-05 5.000000e-07)	2
0.015         	T             	5.730000e+02	(0.000000e+00 5.000000e-07 5.000000e-07)	0	5.735994e+02	(1.575000e-04 4.050000e-05 5.000000e-07)	2
0.0151        	T             	5.730000e+02	(0.000000e+00 5.000000e-07 5.000000e-07)	0	5.736045e+02	(1.575000e-04 3.950000e-05 5.000000e-07)	2
0.0152        	T             	5.730000e+02	(0.000000e+00 5.000000e-07 5.000000e-07)	0	5.736095e+02	(1.575000e-04 3.950000e-05 5.000000e-07)	2
0.0153        	T             	5.730000e+02	(0.000000e+00 5.000000e-07 5.000000e-07)	0	5.736146e+02	(1.575000e-04 4.050000e-05 5.000000e-07)	2
0.0154        	T             	5.730000e+02	(0.000000e+00 5.000000e-07 5.000000e-07)	0	5.736196e+02	(1.585000e-04 4.050000e-05 5.000000e-07)	2
0.0155        	T             	5.730000e+02	(0.000000e+00 5.000000e-07 5.000000e-07)	0	5.736247e+02	(1.585000e-04 4.050000e-05 5.000000e-07)	2
0.0156        	T             	5.730000e+02	(0.000000e+00 5.000000e-07 5.000000e-07)	0	5.736298e+02	(1.585000e-04 3.950000e-05 5.000000e-07)	2
0.0157        	T             	5.730000e+02	(0.000000e+00 5.000000e-07 5.000000e-07)	0	5.736348e+02	(1.585000e-04 4.050000e-05 5.000000e-07)	2
0.0158        	T             	5.730000e+02	(0.000000e+00 5.000000e-07 5.000000e-07)	0	5.736399e+02	(1.585000e-04 4.050000e-05 5.000000e-07)	2
0.0159        	T             	5.730000e+02	(0.000000e+00 5.000000e-07 5.000000e-07)	0	5.736450e+02	(1.585000e-04 3.950000e-05 5.000000e-07)	2
0.016         	T             	5.730000e+02	(0.000000e+00 5.000000e-07 5.000000e-07)	0	5.736501e+02	(1.585000e-04 4.050000e-05 5.000000e-07)	2
0.0161        	T             	5.730000e+02	(0.000000e+00 5.000000e-07 5.000000e-07)	0	5.736551e+02	(1.585000e-04 3.950000e-05 5.000000e-07)	2
0.0162        	T             	5.730000e+02	(0.000000e+00 5.000000e-07 5.000000e-07)	0	5.736602e+02	(1.585000e-04 3.950000e-05 5.000000e-07)	2
0.0163        	T             	5.730000e+02	(0.000000e+00 5.000000e-07 5.000000e-07)	0	5.736653e+02	(1.585000e-04 3.950000e-05 5.000000e-07)	2
0.0164        	T             	5.730000e+02	(0.000000e+00 5.000000e-07 5.000000e-07)	0	5.736704e+02	(1.585000e-04 3.950000e-05 5.000000e-07)	2
0.0165        	T             	5.730000e+02	(0.000000e+00 5.000000e-07 5.000000e-07)	0	5.736755e+02	(1.585000e-04 4.050000e-05 5.000000e-07)	2
0.0166        	T             	5.730000e+02	(0.000000e+00 5.000000e-07 5.000000e-07)	0	5.736806e+02	(1.585000e-04 3.950000e-05 5.000000e-07)	2
0.0167        	T             	5.730000e+02	(0.000000e+00 5.000000e-07 5.000000e-07)	0	5.736857e+02	(1.585000e-04 3.950000e-05 5.000000e-07)	2
0.0168        	T             	5.730000e+02	(0.000000e+00 5.000000e-07 5.000000e-07)	0	5.736908e+02	(1.595000e-04 3.950000e-05 5.000000e-07)	2
0.0169        	T             	5.730000e+02	(0.000000e+00 5.000000e-07 5.000000e-07)	0	5.736959e+02	(1.595000e-04 3.950000e-05 5.000000e-07)	2
0.017         	T             	5.730000e+02	(0.000000e+00 5.000000e-07 5.000000e-07)	0	5.737011e+02	(1.595000e-04 3.950000e-05 5.000000e-07)	2
0.0171        	T             	5.730000e+02	(0.000000e+00 5.000000e-07 5.000000e-07)	0	5.737062e+02	(1.595000e-04 3.950000e-05 5.000000e-07)	2
0.0172        	T             	5.730000e+02	(0.000000e+00 5.000000e-07 5.000000e-07)	0	5.737113e+02	(1.595000e-04 3.950000e-05 5.000000e-07)	2
0.0173        	T             	5.730000e+02	(0.000000e+00 5.000000e-07 5.000000e-07)	0	5.737164e+02	(1.595000e-04 3.950000e-05 5.000000e-07)	2
0.0174        	T             	5.730000e+02	(0.000000e+00 5.000000e-07 5.000000e-07)	0	5.737216e+02	(1.595000e-04 3.950000e-05 5.000000e-07)	2
0.0175        	T             	5.730000e+02	(0.000000e+00 5.000000e-07 5.000000e-07)	0	5.737267e+02	(1.595000e-04 3.950000e-05 5.000000e-07)	2
0.0176        	T             	5.730000e+02	(0.000000e+00 5.000000e-07 5.000000e-07)	0	5.737318e+02	(1.595000e-04 3.950000e-05 5.000000e-07)	2
0.0177        	T             	5.730000e+02	(0.000000e+00 5.000000e-07 5.000000e-07)	0	5.737370e+02	(1.595000e-04 3.950000e-05 5.000000e-07)	2
0.0178        	T             	5.730000e+02	(0.000000e+00 5.000000e-07 5.000000e-07)	0	5.737421e+02	(1.595000e-04 3.950000e-05 5.000000e-07)	2
0.0179        	T             	5.730000e+02	(0.000000e+00 5.000000e-07 5.000000e-07)	0	5.737473e+02	(1.805000e-04 3.950000e-05 5.000000e-07)	2
0.018         	T             	5.730000e+02	(0.000000e+00 5.000000e-07 5.000000e-07)	0	5.737530e+02	(1.805000e-04 3.950000e-05 5.000000e-07)	2
0.0181        	T             	5.730000e+02	(0.000000e+00 5.000000e-07 5.000000e-07)	0	5.737587e+02	(1.805000e-04 3.950000e-05 5.000000e-07)	2
0.0182        	T             	5.730000e+02	(0.000000e+00 5.000000e-07 5.000000e-07)	0	5.737644e+02	(1.805000e-04 3.950000e-05 5.000000e-07)	2
0.0183        	T             	5.730000e+02	(0.000000e+00 5.000000e-07 5.000000e-07)	0	5.737702e+02	(1.805000e-04 3.950000e-05 5.000000e-07)	2
0.0184        	T             	5.730000e+02	(0.000000e+00 5.000000e-07 5.000000e-07)	0	5.737759e+02	(1.805000e-04 3.950000e-05 5.000000e-07)	2
0.0185        	T             	5.730000e+02	(0.000000e+00 5.000000e-07 5.000000e-07)	0	5.737816e+02	(1.805000e-04 3.950000e-05 5.000000e-07)	2
0.0186        	T             	5.730000e+02	(0.000000e+00 5.000000e-07 5.000000e-07)	0	5.737874e+02	(1.805000e-04 4.050000e-05 5.000000e-07)	2
0.0187        	T             	5.730000e+02	(0.000000e+00 5.000000e-07 5.000000e-07)	0	5.737931e+02	(1.815000e-04 3.950000e-05 5.000000e-07)	2
0.0188        	T             	5.730000e+02	(0.000000e+00 5.000000e-07 5.000000e-07)	0	5.737989e+02	(1.815000e-04 3.950000e-05 5.000000e-07)	2
0.0189        	T             	5.730000e+02	(0.000000e+00 5.000000e-07 5.000000e-07)	0	5.738046e+02	(1.815000e-04 4.050000e-05 5.000000e-07)	2
0.019         	T             	5.730000e+02	(0.000000e+00 5.000000e-07 5.000000e-07)	0	5.738104e+02	(1.815000e-04 3.950000e-05 5.000000e-07)	2