/*--------------------------------*- C++ -*----------------------------------*\
  =========                 |
  \\      /  F ield         | OpenFOAM: The Open Source CFD Toolbox
   \\    /   O peration     | Website:  https://openfoam.org
    \\  /    A nd           | Version:  7
     \\/     M anipulation  |
\*---------------------------------------------------------------------------*/
FoamFile
{
    version     2.0;
    format      ascii;
    class       volScalarField;
    location    "0";
    object      p;
}
// * * * * * * * * * * * * * * * * * * * * * * * * * * * * * * * * * * * * * //

dimensions      [0 2 -2 0 0 0 0];

internalField   uniform 0;
/*
internalField   nonuniform List<scalar> 
50000
(
0.000187167
0.000167246
0.000157619
0.000153617
0.000151444
0.000150089
0.0001492
0.000148581
0.00014813
0.000147795
0.000147548
0.00014737
0.000147251
0.000147182
0.000147156
0.000147168
0.000147214
0.000147288
0.000147386
0.000147501
0.000147627
0.000147754
0.00014787
0.00014796
0.000148003
0.000147981
0.000147323
0.000146871
0.000146338
0.00014575
0.000145125
0.000144475
0.00014381
0.000143136
0.00014246
0.000141784
0.000141112
0.000140446
0.000139787
0.000139137
0.000138498
0.000137869
0.000137251
0.000136645
0.00013605
0.000135467
0.000134896
0.000134336
0.000133788
0.00013325
0.000132724
0.000132208
0.000131702
0.000131206
0.00013072
0.000130243
0.000129774
0.000129315
0.000128863
0.000128419
0.000127982
0.000127553
0.00012713
0.000126714
0.000126304
0.0001259
0.000125502
0.000125108
0.00012472
0.000124337
0.000123958
0.000123584
0.000123214
0.000122847
0.000122485
0.000122126
0.00012177
0.000121418
0.000121069
0.000120722
0.000120378
0.000120037
0.000119699
0.000119362
0.000119028
0.000118696
0.000118366
0.000118038
0.000117712
0.000117387
0.000117064
0.000116743
0.000116423
0.000116104
0.000115787
0.000115471
0.000115156
0.000114842
0.000114529
0.000114218
0.000113907
0.000113597
0.000113288
0.00011298
0.000112673
0.000112366
0.00011206
0.000111755
0.00011145
0.000111146
0.000110842
0.000110539
0.000110237
0.000109935
0.000109633
0.000109332
0.000109031
0.000108731
0.000108431
0.000108131
0.000107832
0.000107533
0.000107234
0.000106936
0.000106638
0.00010634
0.000106042
0.000105745
0.000105448
0.00010515
0.000104854
0.000104557
0.000104261
0.000103964
0.000103668
0.000103372
0.000103076
0.00010278
0.000102485
0.000102189
0.000101894
0.000101599
0.000101304
0.000101009
0.000100714
0.000100419
0.000100124
9.98292e-05
9.95345e-05
9.924e-05
9.89455e-05
9.8651e-05
9.83566e-05
9.80623e-05
9.7768e-05
9.74738e-05
9.71796e-05
9.68855e-05
9.65914e-05
9.62973e-05
9.60033e-05
9.57094e-05
9.54154e-05
9.51215e-05
9.48276e-05
9.45338e-05
9.424e-05
9.39462e-05
9.36524e-05
9.33587e-05
9.3065e-05
9.27713e-05
9.24776e-05
9.2184e-05
9.18903e-05
9.15967e-05
9.13031e-05
9.10095e-05
9.0716e-05
9.04224e-05
9.01289e-05
8.98354e-05
8.95418e-05
8.92483e-05
8.89549e-05
8.86614e-05
8.83679e-05
8.80744e-05
8.7781e-05
8.74875e-05
8.71941e-05
8.69007e-05
8.66072e-05
8.63138e-05
8.60204e-05
8.5727e-05
8.54336e-05
8.51402e-05
8.48468e-05
8.45535e-05
8.42601e-05
8.39667e-05
8.36733e-05
8.338e-05
8.30866e-05
8.27932e-05
8.24999e-05
8.22065e-05
8.19132e-05
8.16198e-05
8.13265e-05
8.10332e-05
8.07398e-05
8.04465e-05
8.01532e-05
7.98598e-05
7.95665e-05
7.92732e-05
7.89798e-05
7.86865e-05
7.83932e-05
7.80999e-05
7.78066e-05
7.75132e-05
7.72199e-05
7.69266e-05
7.66333e-05
7.634e-05
7.60467e-05
7.57533e-05
7.546e-05
7.51667e-05
7.48734e-05
7.45801e-05
7.42868e-05
7.39935e-05
7.37002e-05
7.34069e-05
7.31136e-05
7.28203e-05
7.2527e-05
7.22337e-05
7.19404e-05
7.16471e-05
7.13538e-05
7.10605e-05
7.07672e-05
7.04738e-05
7.01805e-05
6.98872e-05
6.95939e-05
6.93006e-05
6.90073e-05
6.8714e-05
6.84207e-05
6.81274e-05
6.78341e-05
6.75408e-05
6.72475e-05
6.69542e-05
6.66609e-05
6.63676e-05
6.60743e-05
6.5781e-05
6.54877e-05
6.51944e-05
6.49011e-05
6.46078e-05
6.43145e-05
6.40212e-05
6.37279e-05
6.34346e-05
6.31413e-05
6.2848e-05
6.25547e-05
6.22614e-05
6.19681e-05
6.16748e-05
6.13815e-05
6.10882e-05
6.07949e-05
6.05016e-05
6.02083e-05
5.9915e-05
5.96217e-05
5.93284e-05
5.90351e-05
5.87418e-05
5.84485e-05
5.81552e-05
5.78618e-05
5.75685e-05
5.72752e-05
5.69819e-05
5.66886e-05
5.63953e-05
5.6102e-05
5.58086e-05
5.55153e-05
5.5222e-05
5.49287e-05
5.46354e-05
5.4342e-05
5.40487e-05
5.37554e-05
5.3462e-05
5.31687e-05
5.28754e-05
5.2582e-05
5.22887e-05
5.19954e-05
5.1702e-05
5.14087e-05
5.11153e-05
5.0822e-05
5.05286e-05
5.02352e-05
4.99419e-05
4.96485e-05
4.93551e-05
4.90618e-05
4.87684e-05
4.8475e-05
4.81816e-05
4.78882e-05
4.75948e-05
4.73014e-05
4.7008e-05
4.67146e-05
4.64211e-05
4.61277e-05
4.58342e-05
4.55408e-05
4.52473e-05
4.49539e-05
4.46604e-05
4.43669e-05
4.40734e-05
4.37799e-05
4.34864e-05
4.31928e-05
4.28993e-05
4.26057e-05
4.23121e-05
4.20185e-05
4.17249e-05
4.14313e-05
4.11376e-05
4.0844e-05
4.05503e-05
4.02566e-05
3.99629e-05
3.96691e-05
3.93753e-05
3.90815e-05
3.87877e-05
3.84938e-05
3.81999e-05
3.7906e-05
3.7612e-05
3.7318e-05
3.7024e-05
3.67299e-05
3.64358e-05
3.61416e-05
3.58474e-05
3.55531e-05
3.52588e-05
3.49645e-05
3.467e-05
3.43755e-05
3.4081e-05
3.37863e-05
3.34916e-05
3.31968e-05
3.2902e-05
3.2607e-05
3.2312e-05
3.20169e-05
3.17216e-05
3.14263e-05
3.11308e-05
3.08353e-05
3.05396e-05
3.02437e-05
2.99478e-05
2.96517e-05
2.93554e-05
2.9059e-05
2.87624e-05
2.84656e-05
2.81686e-05
2.78714e-05
2.7574e-05
2.72764e-05
2.69786e-05
2.66805e-05
2.63821e-05
2.60835e-05
2.57846e-05
2.54853e-05
2.51858e-05
2.48859e-05
2.45856e-05
2.4285e-05
2.3984e-05
2.36825e-05
2.33806e-05
2.30782e-05
2.27753e-05
2.24719e-05
2.2168e-05
2.18635e-05
2.15583e-05
2.12525e-05
2.09461e-05
2.06389e-05
2.0331e-05
2.00222e-05
1.97126e-05
1.94022e-05
1.90908e-05
1.87784e-05
1.84651e-05
1.81506e-05
1.78349e-05
1.75181e-05
1.72e-05
1.68806e-05
1.65597e-05
1.62374e-05
1.59136e-05
1.55881e-05
1.52609e-05
1.49319e-05
1.4601e-05
1.42681e-05
1.39332e-05
1.35961e-05
1.32567e-05
1.2915e-05
1.25708e-05
1.2224e-05
1.18745e-05
1.15222e-05
1.1167e-05
1.08088e-05
1.04475e-05
1.0083e-05
9.71516e-06
9.34398e-06
8.96936e-06
8.59123e-06
8.20955e-06
7.82431e-06
7.4355e-06
7.04313e-06
6.64727e-06
6.24797e-06
5.84536e-06
5.43957e-06
5.03075e-06
4.61911e-06
4.20485e-06
3.78818e-06
3.3693e-06
2.94835e-06
2.52539e-06
2.10029e-06
1.6726e-06
1.24133e-06
8.04436e-07
3.57876e-07
-1.06751e-07
-5.88122e-07
-5.91585e-07
-5.99137e-07
-6.0701e-07
-6.1075e-07
-6.07886e-07
-5.97451e-07
-5.79294e-07
-5.53735e-07
-5.21388e-07
-4.83035e-07
-4.39549e-07
-3.91839e-07
-3.40815e-07
-2.87367e-07
-2.32355e-07
-1.76617e-07
-1.20978e-07
-6.62821e-08
-1.34363e-08
3.6472e-08
8.17796e-08
1.19921e-07
1.49391e-07
1.6654e-07
1.10957e-07
0.000171514
0.000163501
0.000158073
0.000154841
0.000152663
0.000151149
0.000150088
0.000149325
0.000148763
0.000148343
0.00014803
0.0001478
0.000147637
0.000147529
0.000147468
0.000147448
0.000147461
0.000147504
0.000147569
0.000147652
0.000147745
0.000147841
0.00014793
0.000148
0.000148038
0.000148036
0.000147433
0.000146951
0.000146394
0.000145788
0.000145149
0.00014449
0.000143818
0.000143139
0.000142459
0.00014178
0.000141106
0.000140438
0.000139778
0.000139128
0.000138487
0.000137858
0.00013724
0.000136633
0.000136038
0.000135455
0.000134884
0.000134325
0.000133776
0.000133239
0.000132713
0.000132198
0.000131692
0.000131197
0.000130711
0.000130234
0.000129766
0.000129307
0.000128855
0.000128412
0.000127975
0.000127546
0.000127124
0.000126708
0.000126298
0.000125895
0.000125496
0.000125103
0.000124716
0.000124332
0.000123954
0.00012358
0.00012321
0.000122844
0.000122481
0.000122123
0.000121767
0.000121415
0.000121066
0.000120719
0.000120376
0.000120035
0.000119696
0.00011936
0.000119026
0.000118694
0.000118364
0.000118036
0.00011771
0.000117385
0.000117063
0.000116741
0.000116421
0.000116103
0.000115786
0.00011547
0.000115155
0.000114841
0.000114528
0.000114217
0.000113906
0.000113596
0.000113287
0.000112979
0.000112672
0.000112365
0.000112059
0.000111754
0.000111449
0.000111145
0.000110842
0.000110539
0.000110236
0.000109934
0.000109633
0.000109332
0.000109031
0.000108731
0.000108431
0.000108131
0.000107832
0.000107533
0.000107234
0.000106936
0.000106637
0.00010634
0.000106042
0.000105745
0.000105447
0.00010515
0.000104853
0.000104557
0.00010426
0.000103964
0.000103668
0.000103372
0.000103076
0.00010278
0.000102485
0.000102189
0.000101894
0.000101599
0.000101304
0.000101008
0.000100714
0.000100419
0.000100124
9.98291e-05
9.95345e-05
9.92399e-05
9.89454e-05
9.86509e-05
9.83566e-05
9.80622e-05
9.7768e-05
9.74737e-05
9.71796e-05
9.68854e-05
9.65913e-05
9.62973e-05
9.60033e-05
9.57093e-05
9.54154e-05
9.51215e-05
9.48276e-05
9.45338e-05
9.424e-05
9.39462e-05
9.36524e-05
9.33587e-05
9.3065e-05
9.27713e-05
9.24776e-05
9.2184e-05
9.18903e-05
9.15967e-05
9.13031e-05
9.10095e-05
9.0716e-05
9.04224e-05
9.01289e-05
8.98353e-05
8.95418e-05
8.92483e-05
8.89548e-05
8.86614e-05
8.83679e-05
8.80744e-05
8.7781e-05
8.74875e-05
8.71941e-05
8.69007e-05
8.66072e-05
8.63138e-05
8.60204e-05
8.5727e-05
8.54336e-05
8.51402e-05
8.48468e-05
8.45534e-05
8.42601e-05
8.39667e-05
8.36733e-05
8.338e-05
8.30866e-05
8.27932e-05
8.24999e-05
8.22065e-05
8.19132e-05
8.16198e-05
8.13265e-05
8.10332e-05
8.07398e-05
8.04465e-05
8.01532e-05
7.98598e-05
7.95665e-05
7.92732e-05
7.89798e-05
7.86865e-05
7.83932e-05
7.80999e-05
7.78065e-05
7.75132e-05
7.72199e-05
7.69266e-05
7.66333e-05
7.634e-05
7.60467e-05
7.57533e-05
7.546e-05
7.51667e-05
7.48734e-05
7.45801e-05
7.42868e-05
7.39935e-05
7.37002e-05
7.34069e-05
7.31136e-05
7.28203e-05
7.2527e-05
7.22337e-05
7.19404e-05
7.16471e-05
7.13538e-05
7.10605e-05
7.07672e-05
7.04738e-05
7.01805e-05
6.98872e-05
6.95939e-05
6.93006e-05
6.90073e-05
6.8714e-05
6.84207e-05
6.81274e-05
6.78341e-05
6.75408e-05
6.72475e-05
6.69542e-05
6.66609e-05
6.63676e-05
6.60743e-05
6.5781e-05
6.54877e-05
6.51944e-05
6.49011e-05
6.46078e-05
6.43145e-05
6.40212e-05
6.37279e-05
6.34346e-05
6.31413e-05
6.2848e-05
6.25547e-05
6.22614e-05
6.19681e-05
6.16748e-05
6.13815e-05
6.10882e-05
6.07949e-05
6.05016e-05
6.02083e-05
5.9915e-05
5.96217e-05
5.93284e-05
5.90351e-05
5.87418e-05
5.84485e-05
5.81552e-05
5.78618e-05
5.75685e-05
5.72752e-05
5.69819e-05
5.66886e-05
5.63953e-05
5.6102e-05
5.58086e-05
5.55153e-05
5.5222e-05
5.49287e-05
5.46354e-05
5.4342e-05
5.40487e-05
5.37554e-05
5.3462e-05
5.31687e-05
5.28754e-05
5.2582e-05
5.22887e-05
5.19954e-05
5.1702e-05
5.14087e-05
5.11153e-05
5.0822e-05
5.05286e-05
5.02352e-05
4.99419e-05
4.96485e-05
4.93551e-05
4.90618e-05
4.87684e-05
4.8475e-05
4.81816e-05
4.78882e-05
4.75948e-05
4.73014e-05
4.7008e-05
4.67146e-05
4.64211e-05
4.61277e-05
4.58343e-05
4.55408e-05
4.52473e-05
4.49539e-05
4.46604e-05
4.43669e-05
4.40734e-05
4.37799e-05
4.34864e-05
4.31928e-05
4.28993e-05
4.26057e-05
4.23121e-05
4.20186e-05
4.17249e-05
4.14313e-05
4.11377e-05
4.0844e-05
4.05503e-05
4.02566e-05
3.99629e-05
3.96691e-05
3.93754e-05
3.90815e-05
3.87877e-05
3.84939e-05
3.82e-05
3.7906e-05
3.76121e-05
3.73181e-05
3.7024e-05
3.673e-05
3.64358e-05
3.61417e-05
3.58475e-05
3.55532e-05
3.52589e-05
3.49645e-05
3.46701e-05
3.43756e-05
3.4081e-05
3.37864e-05
3.34917e-05
3.31969e-05
3.29021e-05
3.26071e-05
3.23121e-05
3.2017e-05
3.17217e-05
3.14264e-05
3.11309e-05
3.08354e-05
3.05397e-05
3.02439e-05
2.99479e-05
2.96518e-05
2.93555e-05
2.90591e-05
2.87625e-05
2.84658e-05
2.81688e-05
2.78716e-05
2.75743e-05
2.72767e-05
2.69788e-05
2.66808e-05
2.63824e-05
2.60838e-05
2.57849e-05
2.54857e-05
2.51861e-05
2.48863e-05
2.4586e-05
2.42854e-05
2.39844e-05
2.36829e-05
2.33811e-05
2.30787e-05
2.27759e-05
2.24725e-05
2.21686e-05
2.18641e-05
2.1559e-05
2.12532e-05
2.09468e-05
2.06396e-05
2.03317e-05
2.00231e-05
1.97135e-05
1.94031e-05
1.90918e-05
1.87795e-05
1.84661e-05
1.81517e-05
1.78361e-05
1.75194e-05
1.72013e-05
1.6882e-05
1.65612e-05
1.6239e-05
1.59152e-05
1.55898e-05
1.52627e-05
1.49338e-05
1.4603e-05
1.42702e-05
1.39354e-05
1.35984e-05
1.32591e-05
1.29175e-05
1.25733e-05
1.22267e-05
1.18773e-05
1.15251e-05
1.117e-05
1.08119e-05
1.04507e-05
1.00863e-05
9.71854e-06
9.34743e-06
8.97286e-06
8.59477e-06
8.21312e-06
7.82788e-06
7.43905e-06
7.04663e-06
6.65069e-06
6.25129e-06
5.84854e-06
5.44258e-06
5.03358e-06
4.62173e-06
4.20726e-06
3.79039e-06
3.37136e-06
2.95036e-06
2.52753e-06
2.10287e-06
1.67619e-06
1.24695e-06
8.14103e-07
3.75942e-07
-6.97692e-08
-5.67545e-07
-5.81359e-07
-5.8807e-07
-5.9285e-07
-5.93965e-07
-5.89444e-07
-5.78517e-07
-5.61014e-07
-5.3711e-07
-5.07234e-07
-4.71988e-07
-4.32083e-07
-3.88289e-07
-3.41406e-07
-2.9224e-07
-2.41602e-07
-1.90303e-07
-1.39177e-07
-8.91099e-08
-4.10716e-08
3.79596e-09
4.37475e-08
7.60642e-08
1.00881e-07
1.23482e-07
9.33858e-08
0.000162226
0.000159659
0.000156923
0.000154667
0.000152895
0.000151541
0.00015052
0.000149748
0.000149158
0.000148708
0.000148365
0.000148106
0.000147917
0.000147785
0.000147701
0.000147658
0.00014765
0.00014767
0.000147714
0.000147775
0.000147848
0.000147926
0.000148002
0.000148066
0.000148111
0.000148159
0.00014767
0.000147106
0.000146498
0.000145857
0.000145195
0.000144518
0.000143833
0.000143144
0.000142457
0.000141772
0.000141093
0.000140422
0.00013976
0.000139107
0.000138466
0.000137835
0.000137217
0.00013661
0.000136015
0.000135432
0.000134861
0.000134302
0.000133754
0.000133218
0.000132692
0.000132177
0.000131672
0.000131178
0.000130692
0.000130216
0.000129749
0.00012929
0.00012884
0.000128397
0.000127961
0.000127533
0.000127111
0.000126696
0.000126287
0.000125883
0.000125486
0.000125093
0.000124706
0.000124323
0.000123945
0.000123572
0.000123202
0.000122836
0.000122474
0.000122116
0.000121761
0.000121409
0.00012106
0.000120714
0.000120371
0.00012003
0.000119692
0.000119356
0.000119022
0.00011869
0.00011836
0.000118033
0.000117707
0.000117382
0.00011706
0.000116738
0.000116419
0.0001161
0.000115783
0.000115467
0.000115153
0.000114839
0.000114526
0.000114215
0.000113904
0.000113595
0.000113286
0.000112978
0.00011267
0.000112364
0.000112058
0.000111753
0.000111448
0.000111144
0.000110841
0.000110538
0.000110235
0.000109933
0.000109632
0.000109331
0.00010903
0.00010873
0.00010843
0.00010813
0.000107831
0.000107532
0.000107233
0.000106935
0.000106637
0.000106339
0.000106041
0.000105744
0.000105447
0.00010515
0.000104853
0.000104556
0.00010426
0.000103964
0.000103668
0.000103372
0.000103076
0.00010278
0.000102485
0.000102189
0.000101894
0.000101598
0.000101303
0.000101008
0.000100713
0.000100418
0.000100124
9.9829e-05
9.95343e-05
9.92398e-05
9.89453e-05
9.86508e-05
9.83564e-05
9.80621e-05
9.77679e-05
9.74736e-05
9.71795e-05
9.68853e-05
9.65913e-05
9.62972e-05
9.60032e-05
9.57092e-05
9.54153e-05
9.51214e-05
9.48276e-05
9.45337e-05
9.42399e-05
9.39461e-05
9.36524e-05
9.33586e-05
9.30649e-05
9.27712e-05
9.24776e-05
9.21839e-05
9.18903e-05
9.15967e-05
9.13031e-05
9.10095e-05
9.07159e-05
9.04224e-05
9.01289e-05
8.98353e-05
8.95418e-05
8.92483e-05
8.89548e-05
8.86613e-05
8.83679e-05
8.80744e-05
8.7781e-05
8.74875e-05
8.71941e-05
8.69006e-05
8.66072e-05
8.63138e-05
8.60204e-05
8.5727e-05
8.54336e-05
8.51402e-05
8.48468e-05
8.45534e-05
8.42601e-05
8.39667e-05
8.36733e-05
8.338e-05
8.30866e-05
8.27932e-05
8.24999e-05
8.22065e-05
8.19132e-05
8.16198e-05
8.13265e-05
8.10332e-05
8.07398e-05
8.04465e-05
8.01531e-05
7.98598e-05
7.95665e-05
7.92732e-05
7.89798e-05
7.86865e-05
7.83932e-05
7.80999e-05
7.78065e-05
7.75132e-05
7.72199e-05
7.69266e-05
7.66333e-05
7.634e-05
7.60467e-05
7.57533e-05
7.546e-05
7.51667e-05
7.48734e-05
7.45801e-05
7.42868e-05
7.39935e-05
7.37002e-05
7.34069e-05
7.31136e-05
7.28203e-05
7.2527e-05
7.22337e-05
7.19404e-05
7.16471e-05
7.13538e-05
7.10605e-05
7.07671e-05
7.04738e-05
7.01805e-05
6.98872e-05
6.95939e-05
6.93006e-05
6.90073e-05
6.8714e-05
6.84207e-05
6.81274e-05
6.78341e-05
6.75408e-05
6.72475e-05
6.69542e-05
6.66609e-05
6.63676e-05
6.60743e-05
6.5781e-05
6.54877e-05
6.51944e-05
6.49011e-05
6.46078e-05
6.43145e-05
6.40212e-05
6.37279e-05
6.34346e-05
6.31413e-05
6.2848e-05
6.25547e-05
6.22614e-05
6.19681e-05
6.16748e-05
6.13815e-05
6.10882e-05
6.07949e-05
6.05016e-05
6.02083e-05
5.9915e-05
5.96217e-05
5.93284e-05
5.90351e-05
5.87418e-05
5.84485e-05
5.81552e-05
5.78618e-05
5.75685e-05
5.72752e-05
5.69819e-05
5.66886e-05
5.63953e-05
5.6102e-05
5.58086e-05
5.55153e-05
5.5222e-05
5.49287e-05
5.46354e-05
5.4342e-05
5.40487e-05
5.37554e-05
5.34621e-05
5.31687e-05
5.28754e-05
5.2582e-05
5.22887e-05
5.19954e-05
5.1702e-05
5.14087e-05
5.11153e-05
5.0822e-05
5.05286e-05
5.02353e-05
4.99419e-05
4.96485e-05
4.93551e-05
4.90618e-05
4.87684e-05
4.8475e-05
4.81816e-05
4.78882e-05
4.75948e-05
4.73014e-05
4.7008e-05
4.67146e-05
4.64211e-05
4.61277e-05
4.58343e-05
4.55408e-05
4.52474e-05
4.49539e-05
4.46604e-05
4.43669e-05
4.40734e-05
4.37799e-05
4.34864e-05
4.31929e-05
4.28993e-05
4.26058e-05
4.23122e-05
4.20186e-05
4.1725e-05
4.14313e-05
4.11377e-05
4.0844e-05
4.05504e-05
4.02567e-05
3.99629e-05
3.96692e-05
3.93754e-05
3.90816e-05
3.87878e-05
3.84939e-05
3.82e-05
3.79061e-05
3.76121e-05
3.73181e-05
3.70241e-05
3.673e-05
3.64359e-05
3.61418e-05
3.58476e-05
3.55533e-05
3.5259e-05
3.49646e-05
3.46702e-05
3.43757e-05
3.40812e-05
3.37866e-05
3.34919e-05
3.31971e-05
3.29022e-05
3.26073e-05
3.23123e-05
3.20172e-05
3.17219e-05
3.14266e-05
3.11312e-05
3.08356e-05
3.054e-05
3.02441e-05
2.99482e-05
2.96521e-05
2.93559e-05
2.90595e-05
2.87629e-05
2.84661e-05
2.81692e-05
2.78721e-05
2.75747e-05
2.72771e-05
2.69793e-05
2.66813e-05
2.6383e-05
2.60844e-05
2.57855e-05
2.54863e-05
2.51868e-05
2.4887e-05
2.45868e-05
2.42862e-05
2.39852e-05
2.36838e-05
2.3382e-05
2.30797e-05
2.27769e-05
2.24736e-05
2.21697e-05
2.18653e-05
2.15603e-05
2.12546e-05
2.09482e-05
2.06412e-05
2.03333e-05
2.00247e-05
1.97153e-05
1.9405e-05
1.90937e-05
1.87815e-05
1.84683e-05
1.8154e-05
1.78386e-05
1.75219e-05
1.7204e-05
1.68848e-05
1.65642e-05
1.62421e-05
1.59185e-05
1.55932e-05
1.52663e-05
1.49375e-05
1.46069e-05
1.42743e-05
1.39397e-05
1.36029e-05
1.32638e-05
1.29224e-05
1.25785e-05
1.2232e-05
1.18829e-05
1.15309e-05
1.1176e-05
1.08181e-05
1.04571e-05
1.00929e-05
9.7253e-06
9.35433e-06
8.97988e-06
8.60188e-06
8.22028e-06
7.83505e-06
7.44617e-06
7.05367e-06
6.65757e-06
6.25796e-06
5.85494e-06
5.44864e-06
5.03925e-06
4.62698e-06
4.21206e-06
3.79477e-06
3.37539e-06
2.95421e-06
2.5315e-06
2.10749e-06
1.68234e-06
1.25617e-06
8.29088e-07
4.01558e-07
-2.46672e-08
-5.46961e-07
-5.71941e-07
-5.80249e-07
-5.84441e-07
-5.84807e-07
-5.79706e-07
-5.68647e-07
-5.51601e-07
-5.28741e-07
-5.00433e-07
-4.67194e-07
-4.29643e-07
-3.88465e-07
-3.4438e-07
-2.98134e-07
-2.50484e-07
-2.02205e-07
-1.54098e-07
-1.07017e-07
-6.18818e-08
-1.97e-08
1.7997e-08
4.87476e-08
7.43103e-08
1.06125e-07
9.35651e-08
0.000157472
0.000156769
0.000155368
0.000153888
0.000152585
0.000151501
0.000150622
0.000149919
0.000149362
0.000148921
0.000148577
0.000148312
0.000148113
0.000147969
0.000147872
0.000147815
0.000147793
0.000147799
0.000147829
0.000147878
0.00014794
0.00014801
0.000148083
0.00014815
0.000148209
0.000148315
0.000147964
0.000147306
0.000146634
0.000145949
0.000145254
0.000144554
0.000143851
0.000143149
0.000142451
0.000141758
0.000141073
0.000140397
0.000139732
0.000139076
0.000138433
0.000137801
0.000137182
0.000136574
0.00013598
0.000135397
0.000134826
0.000134268
0.000133721
0.000133185
0.00013266
0.000132146
0.000131643
0.000131149
0.000130665
0.00013019
0.000129724
0.000129266
0.000128816
0.000128374
0.00012794
0.000127512
0.000127092
0.000126677
0.000126269
0.000125867
0.00012547
0.000125078
0.000124691
0.00012431
0.000123932
0.000123559
0.00012319
0.000122825
0.000122464
0.000122106
0.000121751
0.0001214
0.000121051
0.000120706
0.000120363
0.000120022
0.000119685
0.000119349
0.000119015
0.000118684
0.000118355
0.000118027
0.000117701
0.000117377
0.000117055
0.000116734
0.000116414
0.000116096
0.000115779
0.000115464
0.000115149
0.000114836
0.000114523
0.000114212
0.000113902
0.000113592
0.000113283
0.000112975
0.000112668
0.000112362
0.000112056
0.000111751
0.000111446
0.000111143
0.000110839
0.000110536
0.000110234
0.000109932
0.000109631
0.00010933
0.000109029
0.000108729
0.000108429
0.000108129
0.00010783
0.000107531
0.000107233
0.000106934
0.000106636
0.000106338
0.000106041
0.000105743
0.000105446
0.000105149
0.000104853
0.000104556
0.00010426
0.000103963
0.000103667
0.000103371
0.000103075
0.00010278
0.000102484
0.000102189
0.000101893
0.000101598
0.000101303
0.000101008
0.000100713
0.000100418
0.000100123
9.98287e-05
9.95341e-05
9.92396e-05
9.89451e-05
9.86506e-05
9.83563e-05
9.8062e-05
9.77677e-05
9.74735e-05
9.71793e-05
9.68852e-05
9.65911e-05
9.62971e-05
9.60031e-05
9.57091e-05
9.54152e-05
9.51213e-05
9.48275e-05
9.45336e-05
9.42398e-05
9.3946e-05
9.36523e-05
9.33586e-05
9.30649e-05
9.27712e-05
9.24775e-05
9.21839e-05
9.18902e-05
9.15966e-05
9.1303e-05
9.10095e-05
9.07159e-05
9.04223e-05
9.01288e-05
8.98353e-05
8.95418e-05
8.92483e-05
8.89548e-05
8.86613e-05
8.83678e-05
8.80744e-05
8.77809e-05
8.74875e-05
8.71941e-05
8.69006e-05
8.66072e-05
8.63138e-05
8.60204e-05
8.5727e-05
8.54336e-05
8.51402e-05
8.48468e-05
8.45534e-05
8.426e-05
8.39667e-05
8.36733e-05
8.33799e-05
8.30866e-05
8.27932e-05
8.24999e-05
8.22065e-05
8.19132e-05
8.16198e-05
8.13265e-05
8.10331e-05
8.07398e-05
8.04465e-05
8.01531e-05
7.98598e-05
7.95665e-05
7.92732e-05
7.89798e-05
7.86865e-05
7.83932e-05
7.80999e-05
7.78065e-05
7.75132e-05
7.72199e-05
7.69266e-05
7.66333e-05
7.634e-05
7.60467e-05
7.57533e-05
7.546e-05
7.51667e-05
7.48734e-05
7.45801e-05
7.42868e-05
7.39935e-05
7.37002e-05
7.34069e-05
7.31136e-05
7.28203e-05
7.2527e-05
7.22337e-05
7.19404e-05
7.16471e-05
7.13538e-05
7.10605e-05
7.07671e-05
7.04738e-05
7.01805e-05
6.98872e-05
6.95939e-05
6.93006e-05
6.90073e-05
6.8714e-05
6.84207e-05
6.81274e-05
6.78341e-05
6.75408e-05
6.72475e-05
6.69542e-05
6.66609e-05
6.63676e-05
6.60743e-05
6.5781e-05
6.54877e-05
6.51944e-05
6.49011e-05
6.46078e-05
6.43145e-05
6.40212e-05
6.37279e-05
6.34346e-05
6.31413e-05
6.2848e-05
6.25547e-05
6.22614e-05
6.19681e-05
6.16748e-05
6.13815e-05
6.10882e-05
6.07949e-05
6.05016e-05
6.02083e-05
5.9915e-05
5.96217e-05
5.93284e-05
5.90351e-05
5.87418e-05
5.84485e-05
5.81552e-05
5.78619e-05
5.75685e-05
5.72752e-05
5.69819e-05
5.66886e-05
5.63953e-05
5.6102e-05
5.58087e-05
5.55153e-05
5.5222e-05
5.49287e-05
5.46354e-05
5.4342e-05
5.40487e-05
5.37554e-05
5.34621e-05
5.31687e-05
5.28754e-05
5.25821e-05
5.22887e-05
5.19954e-05
5.1702e-05
5.14087e-05
5.11153e-05
5.0822e-05
5.05286e-05
5.02353e-05
4.99419e-05
4.96485e-05
4.93552e-05
4.90618e-05
4.87684e-05
4.8475e-05
4.81816e-05
4.78882e-05
4.75948e-05
4.73014e-05
4.7008e-05
4.67146e-05
4.64212e-05
4.61277e-05
4.58343e-05
4.55408e-05
4.52474e-05
4.49539e-05
4.46604e-05
4.4367e-05
4.40735e-05
4.378e-05
4.34864e-05
4.31929e-05
4.28994e-05
4.26058e-05
4.23122e-05
4.20186e-05
4.1725e-05
4.14314e-05
4.11378e-05
4.08441e-05
4.05504e-05
4.02567e-05
3.9963e-05
3.96693e-05
3.93755e-05
3.90817e-05
3.87879e-05
3.8494e-05
3.82001e-05
3.79062e-05
3.76123e-05
3.73183e-05
3.70242e-05
3.67302e-05
3.64361e-05
3.61419e-05
3.58477e-05
3.55535e-05
3.52592e-05
3.49648e-05
3.46704e-05
3.43759e-05
3.40814e-05
3.37868e-05
3.34921e-05
3.31973e-05
3.29025e-05
3.26076e-05
3.23126e-05
3.20175e-05
3.17223e-05
3.1427e-05
3.11315e-05
3.0836e-05
3.05403e-05
3.02446e-05
2.99486e-05
2.96526e-05
2.93564e-05
2.906e-05
2.87634e-05
2.84667e-05
2.81698e-05
2.78727e-05
2.75754e-05
2.72778e-05
2.69801e-05
2.66821e-05
2.63838e-05
2.60853e-05
2.57864e-05
2.54873e-05
2.51878e-05
2.48881e-05
2.45879e-05
2.42874e-05
2.39865e-05
2.36852e-05
2.33834e-05
2.30812e-05
2.27785e-05
2.24752e-05
2.21715e-05
2.18671e-05
2.15622e-05
2.12566e-05
2.09504e-05
2.06434e-05
2.03357e-05
2.00272e-05
1.97179e-05
1.94078e-05
1.90967e-05
1.87846e-05
1.84716e-05
1.81574e-05
1.78422e-05
1.75257e-05
1.7208e-05
1.6889e-05
1.65686e-05
1.62467e-05
1.59233e-05
1.55983e-05
1.52716e-05
1.49432e-05
1.46128e-05
1.42805e-05
1.39462e-05
1.36097e-05
1.3271e-05
1.29298e-05
1.25863e-05
1.22401e-05
1.18913e-05
1.15396e-05
1.1185e-05
1.08275e-05
1.04667e-05
1.01028e-05
9.73546e-06
9.36472e-06
8.99045e-06
8.61259e-06
8.23107e-06
7.84586e-06
7.45693e-06
7.06429e-06
6.66797e-06
6.26804e-06
5.86461e-06
5.4578e-06
5.04781e-06
4.63487e-06
4.21923e-06
3.80123e-06
3.38122e-06
2.95959e-06
2.53677e-06
2.11323e-06
1.68951e-06
1.26629e-06
8.44527e-07
4.25866e-07
1.33437e-08
-5.32722e-07
-5.66639e-07
-5.77072e-07
-5.8182e-07
-5.82376e-07
-5.77256e-07
-5.6623e-07
-5.49451e-07
-5.27162e-07
-4.99737e-07
-4.67669e-07
-4.31536e-07
-3.91971e-07
-3.49646e-07
-3.05253e-07
-2.595e-07
-2.1311e-07
-1.66829e-07
-1.21435e-07
-7.77322e-08
-3.65319e-08
9.13534e-10
3.2468e-08
6.11145e-08
1.01792e-07
9.91673e-08
0.00015473
0.000154683
0.000153984
0.000153044
0.00015212
0.000151284
0.000150562
0.000149953
0.000149451
0.000149042
0.000148713
0.000148454
0.000148255
0.000148107
0.000148004
0.00014794
0.000147909
0.000147906
0.000147928
0.000147968
0.000148024
0.000148092
0.000148167
0.000148239
0.000148314
0.000148479
0.000148268
0.000147521
0.000146784
0.00014605
0.00014532
0.000144592
0.000143868
0.00014315
0.000142439
0.000141737
0.000141045
0.000140363
0.000139692
0.000139034
0.000138388
0.000137755
0.000137134
0.000136527
0.000135932
0.000135349
0.00013478
0.000134222
0.000133676
0.000133141
0.000132618
0.000132105
0.000131603
0.000131111
0.000130628
0.000130155
0.00012969
0.000129234
0.000128785
0.000128345
0.000127912
0.000127485
0.000127066
0.000126653
0.000126246
0.000125844
0.000125449
0.000125058
0.000124672
0.000124291
0.000123915
0.000123543
0.000123175
0.00012281
0.00012245
0.000122092
0.000121738
0.000121388
0.00012104
0.000120695
0.000120352
0.000120013
0.000119675
0.00011934
0.000119007
0.000118676
0.000118347
0.00011802
0.000117695
0.000117371
0.000117049
0.000116728
0.000116409
0.000116091
0.000115774
0.000115459
0.000115145
0.000114832
0.000114519
0.000114208
0.000113898
0.000113589
0.00011328
0.000112972
0.000112665
0.000112359
0.000112053
0.000111748
0.000111444
0.00011114
0.000110837
0.000110534
0.000110232
0.00010993
0.000109629
0.000109328
0.000109027
0.000108727
0.000108428
0.000108128
0.000107829
0.00010753
0.000107232
0.000106933
0.000106635
0.000106337
0.00010604
0.000105743
0.000105445
0.000105149
0.000104852
0.000104555
0.000104259
0.000103963
0.000103667
0.000103371
0.000103075
0.000102779
0.000102484
0.000102188
0.000101893
0.000101598
0.000101303
0.000101008
0.000100713
0.000100418
0.000100123
9.98285e-05
9.95338e-05
9.92393e-05
9.89448e-05
9.86504e-05
9.8356e-05
9.80617e-05
9.77675e-05
9.74733e-05
9.71791e-05
9.6885e-05
9.6591e-05
9.62969e-05
9.6003e-05
9.5709e-05
9.54151e-05
9.51212e-05
9.48273e-05
9.45335e-05
9.42397e-05
9.39459e-05
9.36522e-05
9.33585e-05
9.30648e-05
9.27711e-05
9.24774e-05
9.21838e-05
9.18902e-05
9.15966e-05
9.1303e-05
9.10094e-05
9.07158e-05
9.04223e-05
9.01288e-05
8.98352e-05
8.95417e-05
8.92482e-05
8.89547e-05
8.86613e-05
8.83678e-05
8.80743e-05
8.77809e-05
8.74875e-05
8.7194e-05
8.69006e-05
8.66072e-05
8.63138e-05
8.60204e-05
8.5727e-05
8.54336e-05
8.51402e-05
8.48468e-05
8.45534e-05
8.426e-05
8.39667e-05
8.36733e-05
8.33799e-05
8.30866e-05
8.27932e-05
8.24999e-05
8.22065e-05
8.19132e-05
8.16198e-05
8.13265e-05
8.10331e-05
8.07398e-05
8.04465e-05
8.01531e-05
7.98598e-05
7.95665e-05
7.92731e-05
7.89798e-05
7.86865e-05
7.83932e-05
7.80999e-05
7.78065e-05
7.75132e-05
7.72199e-05
7.69266e-05
7.66333e-05
7.634e-05
7.60466e-05
7.57533e-05
7.546e-05
7.51667e-05
7.48734e-05
7.45801e-05
7.42868e-05
7.39935e-05
7.37002e-05
7.34069e-05
7.31136e-05
7.28203e-05
7.2527e-05
7.22337e-05
7.19404e-05
7.16471e-05
7.13538e-05
7.10604e-05
7.07671e-05
7.04738e-05
7.01805e-05
6.98872e-05
6.95939e-05
6.93006e-05
6.90073e-05
6.8714e-05
6.84207e-05
6.81274e-05
6.78341e-05
6.75408e-05
6.72475e-05
6.69542e-05
6.66609e-05
6.63676e-05
6.60743e-05
6.5781e-05
6.54877e-05
6.51944e-05
6.49011e-05
6.46078e-05
6.43145e-05
6.40212e-05
6.37279e-05
6.34346e-05
6.31413e-05
6.2848e-05
6.25547e-05
6.22614e-05
6.19681e-05
6.16748e-05
6.13815e-05
6.10882e-05
6.07949e-05
6.05016e-05
6.02083e-05
5.9915e-05
5.96217e-05
5.93284e-05
5.90351e-05
5.87418e-05
5.84485e-05
5.81552e-05
5.78619e-05
5.75685e-05
5.72752e-05
5.69819e-05
5.66886e-05
5.63953e-05
5.6102e-05
5.58087e-05
5.55153e-05
5.5222e-05
5.49287e-05
5.46354e-05
5.43421e-05
5.40487e-05
5.37554e-05
5.34621e-05
5.31687e-05
5.28754e-05
5.25821e-05
5.22887e-05
5.19954e-05
5.1702e-05
5.14087e-05
5.11153e-05
5.0822e-05
5.05286e-05
5.02353e-05
4.99419e-05
4.96485e-05
4.93552e-05
4.90618e-05
4.87684e-05
4.8475e-05
4.81817e-05
4.78883e-05
4.75949e-05
4.73015e-05
4.7008e-05
4.67146e-05
4.64212e-05
4.61278e-05
4.58343e-05
4.55409e-05
4.52474e-05
4.4954e-05
4.46605e-05
4.4367e-05
4.40735e-05
4.378e-05
4.34865e-05
4.3193e-05
4.28994e-05
4.26059e-05
4.23123e-05
4.20187e-05
4.17251e-05
4.14315e-05
4.11378e-05
4.08442e-05
4.05505e-05
4.02568e-05
3.99631e-05
3.96694e-05
3.93756e-05
3.90818e-05
3.8788e-05
3.84941e-05
3.82003e-05
3.79063e-05
3.76124e-05
3.73184e-05
3.70244e-05
3.67303e-05
3.64362e-05
3.61421e-05
3.58479e-05
3.55537e-05
3.52594e-05
3.4965e-05
3.46706e-05
3.43762e-05
3.40817e-05
3.37871e-05
3.34924e-05
3.31977e-05
3.29028e-05
3.26079e-05
3.23129e-05
3.20179e-05
3.17227e-05
3.14274e-05
3.1132e-05
3.08365e-05
3.05409e-05
3.02451e-05
2.99492e-05
2.96532e-05
2.9357e-05
2.90607e-05
2.87642e-05
2.84675e-05
2.81706e-05
2.78735e-05
2.75763e-05
2.72788e-05
2.69811e-05
2.66831e-05
2.63849e-05
2.60864e-05
2.57876e-05
2.54886e-05
2.51892e-05
2.48895e-05
2.45894e-05
2.4289e-05
2.39882e-05
2.36869e-05
2.33853e-05
2.30831e-05
2.27805e-05
2.24774e-05
2.21738e-05
2.18696e-05
2.15647e-05
2.12593e-05
2.09532e-05
2.06464e-05
2.03389e-05
2.00306e-05
1.97214e-05
1.94115e-05
1.91006e-05
1.87887e-05
1.84759e-05
1.8162e-05
1.78469e-05
1.75307e-05
1.72133e-05
1.68946e-05
1.65744e-05
1.62529e-05
1.59298e-05
1.56051e-05
1.52788e-05
1.49507e-05
1.46207e-05
1.42888e-05
1.39549e-05
1.36188e-05
1.32804e-05
1.29397e-05
1.25966e-05
1.22509e-05
1.19024e-05
1.15512e-05
1.11971e-05
1.08399e-05
1.04796e-05
1.0116e-05
9.74907e-06
9.37863e-06
9.00462e-06
8.62695e-06
8.24556e-06
7.86039e-06
7.4714e-06
7.07859e-06
6.68198e-06
6.28163e-06
5.87764e-06
5.47014e-06