/*--------------------------------*- C++ -*----------------------------------*\
  =========                 |
  \\      /  F ield         | OpenFOAM: The Open Source CFD Toolbox
   \\    /   O peration     | Website:  https://openfoam.org
    \\  /    A nd           | Version:  7
     \\/     M anipulation  |
\*---------------------------------------------------------------------------*/
FoamFile
{
    version     2.0;
    format      ascii;
    class       volScalarField;
    location    "0";
    object      p_rgh;
}
// * * * * * * * * * * * * * * * * * * * * * * * * * * * * * * * * * * * * * //

dimensions      [1 -1 -2 0 0 0 0];

internalField   nonuniform List<scalar> 
5625
(
1.33804
0.895114
0.68289
0.596892
0.551996
0.525258
0.508565
0.497359
0.489205
0.482834
0.477525
0.472825
0.468434
0.464142
0.459796
0.455278
0.450496
0.445377
0.439859
0.433893
0.427438
0.42046
0.412935
0.404843
0.396176
0.38693
0.377112
0.366735
0.355823
0.344406
0.332524
0.320222
0.307552
0.294572
0.281346
0.267937
0.254415
0.240847
0.227304
0.213853
0.200562
0.187496
0.174716
0.162278
0.150233
0.138628
0.127499
0.116876
0.106783
0.0972343
0.0882358
0.0797878
0.0718835
0.0645102
0.0576502
0.0512813
0.0453781
0.0399124
0.0348541
0.0301718
0.0258336
0.0218076
0.0180626
0.0145687
0.0112981
0.0082259
0.0053315
0.00260049
2.74419e-05
-0.00237734
-0.0045657
-0.00643227
-0.00791744
-0.00883289
-0.00591953
0.988227
0.810693
0.691608
0.622066
0.576236
0.545129
0.523846
0.508749
0.49752
0.488757
0.481573
0.475383
0.46979
0.464515
0.459355
0.454159
0.448811
0.443218
0.437309
0.431024
0.424317
0.41715
0.409495
0.401332
0.39265
0.383445
0.373721
0.363489
0.352772
0.341595
0.329995
0.318012
0.305694
0.293094
0.280268
0.267277
0.254182
0.241046
0.227932
0.214905
0.202025
0.189352
0.176942
0.164847
0.153114
0.141785
0.130895
0.120472
0.110539
0.101109
0.0921902
0.0837847
0.0758877
0.0684894
0.0615754
0.0551273
0.0491232
0.0435391
0.0383488
0.033525
0.0290399
0.0248657
0.0209757
0.0173442
0.0139484
0.0107685
0.00779003
0.00500581
0.00241826
4.46062e-05
-0.00205909
-0.00377662
-0.00513546
-0.00643164
-0.00495287
0.778997
0.723249
0.664145
0.616047
0.578832
0.550839
0.529972
0.514197
0.501957
0.49215
0.483999
0.476954
0.470617
0.464702
0.458992
0.453325
0.447576
0.441644
0.435452
0.428935
0.422045
0.414741
0.406993
0.39878
0.390089
0.380915
0.37126
0.361136
0.350561
0.339559
0.328164
0.316413
0.304351
0.292026
0.279491
0.266803
0.254018
0.241196
0.228396
0.215678
0.203098
0.190713
0.178576
0.166734
0.155232
0.144111
0.133401
0.123132
0.113324
0.103991
0.0951412
0.0867779
0.0788977
0.0714927
0.0645505
0.0580552
0.0519878
0.0463267
0.0410487
0.0361293
0.0315438
0.0272673
0.0232759
0.019547
0.0160606
0.0128
0.00975338
0.00691564
0.00428954
0.00188782
-0.000243271
-0.00200098
-0.00350046
-0.00537209
-0.00491611
0.669964
0.65645
0.627366
0.596544
0.569636
0.547418
0.529451
0.514959
0.503146
0.493326
0.484947
0.477581
0.470895
0.464634
0.458602
0.452642
0.446632
0.440474
0.434089
0.427414
0.420398
0.412999
0.405188
0.396943
0.388248
0.3791
0.369498
0.359453
0.348982
0.338107
0.326859
0.315274
0.303395
0.291267
0.27894
0.266468
0.253906
0.241309
0.228735
0.216239
0.203877
0.191701
0.179762
0.168106
0.156776
0.14581
0.135239
0.125089
0.115381
0.10613
0.0973421
0.0890218
0.0811666
0.0737695
0.0668195
0.0603023
0.0542004
0.0484942
0.0431623
0.0381824
0.0335315
0.0291869
0.0251265
0.0213295
0.0177773
0.0144544
0.0113491
0.00845528
0.00577179
0.00330246
0.00107912
-0.000814038
-0.00255776
-0.00496816
-0.00513133
0.605424
0.607322
0.594279
0.575625
0.557143
0.540375
0.525724
0.51315
0.502381
0.493069
0.48488
0.477517
0.470734
0.464324
0.458121
0.451988
0.445813
0.439505
0.432989
0.426204
0.419099
0.411636
0.403782
0.395517
0.386826
0.377701
0.368144
0.358162
0.347773
0.336996
0.325862
0.314405
0.302665
0.290688
0.27852
0.266214
0.253822
0.241399
0.228998
0.216674
0.20448
0.192467
0.180684
0.169175
0.157983
0.147143
0.136686
0.126638
0.117018
0.107839
0.0991116
0.0908369
0.0830135
0.0756349
0.0686909
0.0621682
0.0560503
0.0503191
0.0449544
0.0399353
0.0352403
0.0308481
0.0267376
0.0228895
0.0192856
0.0159104
0.0127516
0.00980059
0.0070516
0.00449975
0.00216469
0.000116322
-0.00187149
-0.0047286
-0.00532519
0.563947
0.571259
0.566805
0.556166
0.543941
0.531711
0.520184
0.509676
0.500224
0.491718
0.483994
0.476875
0.470194
0.463799
0.45756
0.451363
0.445113
0.438728
0.432141
0.425294
0.41814
0.410641
0.402767
0.394496
0.385813
0.376711
0.36719
0.357258
0.346928
0.336223
0.325169
0.313802
0.302159
0.290286
0.278229
0.266038
0.253765
0.241463
0.229184
0.216981
0.204907
0.19301
0.18134
0.169939
0.15885
0.148106
0.13774
0.127775
0.118229
0.109118
0.100447
0.0922198
0.0844344
0.0770842
0.0701594
0.0636469
0.0575309
0.0517939
0.0464166
0.0413789
0.0366604
0.0322403
0.0280986
0.0242162
0.0205752
0.0171595
0.0139554
0.0109517
0.008138
0.00550224
0.00305493
0.000856615
-0.00134821
-0.00456088
-0.00547415
0.535925
0.544646
0.544594
0.53901
0.531241
0.522585
0.513768
0.505228
0.49716
0.4896
0.482505
0.475792
0.469363
0.463115
0.456952
0.450789
0.444545
0.438152
0.43155
0.424688
0.417523
0.410018
0.402146
0.393883
0.385216
0.376136
0.366644
0.356745
0.346455
0.335792
0.324785
0.313468
0.301879
0.290063
0.278066
0.265939
0.253732
0.241498
0.229289
0.217156
0.20515
0.193323
0.181721
0.170388
0.159366
0.14869
0.138389
0.128488
0.119004
0.109951
0.101335
0.0931574
0.0854164
0.0781048
0.0712123
0.0647256
0.0586293
0.0529056
0.0475359
0.0425004
0.0377788
0.0333511
0.0291974
0.0252984
0.0216363
0.018194
0.0149561
0.0119091
0.00903869
0.00632708
0.00377844
0.00144772
-0.000938012
-0.00442259
-0.00556989
0.516028
0.524716
0.526873
0.524424
0.519742
0.513792
0.507194
0.500391
0.493636
0.487044
0.48065
0.474435
0.468353
0.462345
0.456347
0.450294
0.444124
0.437783
0.431218
0.424384
0.417243
0.409761
0.40191
0.39367
0.385025
0.375968
0.366497
0.356619
0.346345
0.335698
0.324704
0.313398
0.301819
0.290013
0.278028
0.265913
0.253721
0.241503
0.229311
0.217196
0.205211
0.193405
0.181827
0.170523
0.159533
0.148894
0.138635
0.128779
0.119345
0.110344
0.10178
0.0936557
0.0859659
0.0787032
0.0718563
0.0654114
0.0593522
0.053661
0.0483187
0.0433055
0.0386012
0.0341858
0.0300391
0.0261419
0.0224755
0.0190221
0.0157649
0.0126879
0.00977399
0.00700136
0.00436994
0.00193139
-0.000596043
-0.00427738
-0.00560103
0.501331
0.509554
0.512802
0.512288
0.509714
0.505762
0.500919
0.495578
0.489997
0.484325
0.478637
0.472958
0.467278
0.461572
0.455799
0.449916
0.443876
0.437636
0.431152
0.424385
0.417301
0.409867
0.402059
0.393855
0.38524
0.376206
0.36675
0.356878
0.346602
0.335942
0.324927
0.313592
0.301979
0.290135
0.278111
0.265959
0.253729
0.241476
0.229249
0.217102
0.205087
0.193254
0.181656
0.170339
0.159346
0.148715
0.138474
0.128648
0.119252
0.110296
0.101785
0.0937168
0.0860863
0.0788837
0.0720966
0.0657095
0.0597055
0.0540658
0.0487709
0.0438004
0.0391337
0.0347505
0.0306304
0.0267536
0.0231009
0.0196535
0.0163933
0.0133028
0.0103625
0.00754807
0.00485665
0.00233787
-0.000292457
-0.00410298
-0.00556083
0.490223
0.497899
0.501659
0.502333
0.501187
0.498689
0.495204
0.491059
0.48649
0.481651
0.476637
0.471494
0.466241
0.460871
0.455365
0.449696
0.44383
0.437732
0.431367
0.424701
0.417703
0.410344
0.402597
0.394444
0.385867
0.376857
0.367411
0.357532
0.347232
0.336531
0.32546
0.314055
0.302362
0.290431
0.278317
0.266074
0.253756
0.241415
0.229102
0.216871
0.204773
0.192865
0.181199
0.169828
0.158795
0.148141
0.137896
0.128082
0.118715
0.109801
0.101343
0.0933377
0.085776
0.0786463
0.0719342
0.0656224
0.0596924
0.0541241
0.0488969
0.0439898
0.0393814
0.0350509
0.0309773
0.0271404
0.0235202
0.0200972
0.0168525
0.013767
0.0108198
0.00798521
0.00525864
0.00268797
-8.2755e-06
-0.00388651
-0.00544591
0.48177
0.488918
0.492877
0.494273
0.494087
0.492636
0.490187
0.487001
0.483284
0.479178
0.474782
0.470155
0.465329
0.460312
0.4551
0.449675
0.444016
0.438094
0.431881
0.425348
0.418464
0.411202
0.403538
0.39545
0.38692
0.377937
0.368495
0.358597
0.348253
0.337483
0.326317
0.314798
0.302974
0.290904
0.278647
0.266261
0.253801
0.24132
0.228868
0.216499
0.204266
0.192228
0.180445
0.168974
0.157864
0.147157
0.136885
0.127069
0.117721
0.108848
0.100447
0.0925115
0.0850303
0.0779884
0.0713684
0.0651508
0.0593148
0.0538388
0.0487008
0.0438785
0.0393497
0.0350928
0.0310864
0.0273094
0.0237415
0.0203625
0.0171526
0.0140921
0.0111592
0.00832743
0.00559126
0.00299668
0.000269309
-0.00362005
-0.00525466
0.475389
0.482045
0.48603
0.48785
0.488301
0.487597
0.485928
0.483502
0.480487
0.477013
0.473173
0.469027
0.464616
0.459956
0.45505
0.449892
0.444465
0.438747
0.432715
0.426341
0.419598
0.412459
0.404897
0.39689
0.388418
0.379467
0.370027
0.360098
0.349689
0.338819
0.32752
0.315837
0.303828
0.29156
0.279101
0.266517
0.253863
0.24119
0.228547
0.215984
0.203559
0.191334
0.179378
0.167757
0.156529
0.145738
0.135416
0.125584
0.116251
0.107419
0.0990816
0.0912278
0.0838419
0.0769053
0.0703969
0.0642944
0.0585743
0.053213
0.0481866
0.0434714
0.0390444
0.0348829
0.0309647
0.0272685
0.0237733
0.0204585
0.0173038
0.014289
0.0113922
0.00858672
0.00586642
0.00327497
0.000549045
-0.00329893
-0.00498682
0.470693
0.476887
0.480793
0.482843
0.483705
0.483525
0.482438
0.480605
0.478165
0.475229
0.471878
0.468175
0.464158
0.459849
0.455257
0.450379
0.445204
0.439715
0.433889
0.427701
0.421125
0.414133
0.406696
0.398789
0.390389
0.381476
0.372039
0.362071
0.351576
0.340574
0.329096
0.317194
0.304936
0.292404
0.279682
0.266843
0.253942
0.241026
0.228139
0.215327
0.202646
0.190167
0.177975
0.16615
0.154758
0.14385
0.133457
0.123599
0.114279
0.105493
0.0972299
0.0894728
0.0822007
0.0753902
0.069016
0.063052
0.0574719
0.0522493
0.0473583
0.0427739
0.0384716
0.0344278
0.0306198
0.0270257
0.023624
0.020394
0.0173153
0.0143675
0.0115287
0.00877287
0.00609334
0.00353083
0.000836766
-0.00292086
-0.00464332
0.46741
0.473161
0.476918
0.479065
0.480178
0.480358
0.479699
0.478325
0.47635
0.473866
0.470945
0.467643
0.463996
0.460029
0.455752
0.451164
0.446257
0.441017
0.435422
0.429447
0.423065
0.416246
0.408959
0.401175
0.392864
0.384003
0.374572
0.364559
0.353961
0.342793
0.331086
0.3189
0.306316
0.293442
0.280387
0.267234
0.254037
0.240833
0.227653
0.214532
0.201525
0.188715
0.17621
0.164114
0.152508
0.141449
0.130968
0.121076
0.111771
0.103042
0.0948697
0.0872295
0.0800943
0.0734349
0.0672209
0.061422
0.0560083
0.0509505
0.0462206
0.0417917
0.037638
0.0337351
0.0300596
0.0265891
0.0233022
0.020178
0.0171961
0.0143364
0.0115774
0.008894
0.00627918
0.00377003
0.00113617
-0.00248543
-0.00422619
0.465339
0.47065
0.474209
0.47636
0.477609
0.478025
0.477673
0.476651
0.47505
0.472945
0.470398
0.467458
0.464158
0.460521
0.456557
0.452268
0.447644
0.442673
0.437332
0.431597
0.425438
0.418822
0.411715
0.404081
0.395884
0.387093
0.377679
0.367621
0.356905
0.345537
0.333545
0.320994
0.307988
0.294673
0.281203
0.267679
0.254145
0.240617
0.227101
0.213614
0.2002
0.18696
0.174044
0.161599
0.149723
0.138479
0.127893
0.117968
0.108689
0.100034
0.0919747
0.084478
0.0775086
0.0710301
0.0650067
0.0594029
0.0541849
0.0493203
0.0447787
0.0405313
0.0365511
0.0328128
0.0292925
0.0259677
0.0228169
0.0198192
0.0169547
0.0142039
0.0115459
0.00895689
0.00642956
0.00399669
0.00144933
-0.00199377
-0.00373846
0.464317
0.469186
0.472509
0.474596
0.475894
0.476452
0.476315
0.475559
0.474256
0.472468
0.470247
0.467634
0.464659
0.461341
0.457689
0.453704
0.449378
0.444695
0.439635
0.434169
0.428265
0.421887
0.414994
0.407544
0.399494
0.390801
0.381424
0.37133
0.360491
0.348891
0.336548
0.323533
0.309973
0.296082
0.282101
0.268154
0.254258
0.240389
0.226513
0.212607
0.19869
0.184884
0.171429
0.158534
0.146323
0.134863
0.124167
0.114217
0.104983
0.0964295
0.0885153
0.0811963
0.074428
0.0681663
0.0623684
0.0569936
0.0520037
0.0473632
0.0430389
0.0390004
0.0352195
0.0316701
0.0283282
0.0251709
0.0221772
0.0193266
0.0165997
0.0139778
0.0114411
0.00896736
0.00654894
0.00421364
0.00177704
-0.00144832
-0.00318417
0.464213
0.468631
0.471685
0.473656
0.474939
0.475567
0.475571
0.475012
0.473947
0.472425
0.47049
0.468174
0.465504
0.462495
0.459154
0.455481
0.451466
0.447094
0.44234
0.437176
0.431563
0.425462
0.418826
0.411604
0.403742
0.395187
0.385883
0.375778
0.364823
0.352968
0.340202
0.326592
0.312291
0.297628
0.283019
0.268611
0.25436
0.240173
0.225944
0.21158
0.197041
0.182474
0.168292
0.15482
0.142203
0.130503
0.119705
0.109754
0.100599
0.092186
0.0844588
0.077361
0.0708371
0.0648342
0.0593022
0.0541946
0.0494687
0.0450854
0.0410094
0.0372083
0.0336532
0.0303175
0.0271768
0.0242089
0.021393
0.0187094
0.0161395
0.0136657
0.0112695
0.00893051
0.00664088
0.00442275
0.0021191
-0.000852655
-0.00256826
0.464912
0.468865
0.471624
0.473439
0.474656
0.475298
0.475388
0.474972
0.474094
0.472796
0.471112
0.469068
0.466686
0.463979
0.46095
0.457598
0.453911
0.449872
0.445455
0.440628
0.435349
0.429572
0.423242
0.416301
0.408684
0.400321
0.391141
0.381075
0.37004
0.357927
0.344657
0.330287
0.314961
0.299212
0.283831
0.268963
0.254424
0.240002
0.225485
0.210664
0.19536
0.179718
0.164527
0.150313
0.137212
0.12527
0.114405
0.104502
0.0954761
0.087257
0.0797716
0.0729487
0.0667213
0.0610266
0.0558067
0.0510089
0.046586
0.0424957
0.0387003
0.0351664
0.0318641
0.0287667
0.0258503
0.023093
0.0204748
0.0179772
0.0155828
0.013275
0.0110372
0.00885095
0.00670827
0.00462513
0.00247443
-0.000211371
-0.00189655
0.466308
0.469782
0.472224
0.47385
0.474963
0.475577
0.475707
0.47539
0.474661
0.473553
0.472091
0.4703
0.468193
0.465782
0.463068
0.460047
0.456707
0.453027
0.44898
0.444529
0.439631
0.434233
0.428271
0.421677
0.414373
0.406275
0.397295
0.387348
0.376324
0.364
0.350168
0.334861
0.318068
0.300612
0.284278
0.269048
0.254398
0.239935
0.225307
0.210124
0.193873
0.176538
0.159899
0.14477
0.131127
0.118991
0.108148
0.0983719
0.0895488
0.081595
0.0744202
0.0679379
0.0620685
0.0567391
0.0518834
0.0474427
0.0433653
0.0396058
0.036125
0.0328885
0.0298662
0.0270317
0.0243618
0.0218355
0.0194342
0.0171405
0.0149386
0.0128135
0.0107502
0.00873297
0.00675356
0.00482127
0.0028413
0.000470015
-0.00117569
0.468304
0.471286
0.473391
0.474804
0.475782
0.476334
0.47647
0.476218
0.475607
0.474661
0.4734
0.471844
0.470004
0.467887
0.465492
0.462814
0.45984
0.456547
0.452906
0.448879
0.444415
0.439457
0.433934
0.427765
0.42086
0.41312
0.404437
0.394738
0.383914
0.371549
0.357156
0.340785
0.321882
0.301384
0.283848
0.268565
0.254188
0.24007
0.225714
0.210478
0.193031
0.172672
0.153948
0.137781
0.1236
0.111439
0.100806
0.0912809
0.0827548
0.075155
0.0683749
0.062311
0.0568714
0.0519724
0.0475393
0.0435072
0.0398205
0.0364316
0.0333002
0.0303916
0.0276762
0.0251285
0.0227264
0.0204506
0.0182838
0.0162105
0.0142165
0.0122888
0.0104146
0.00858074
0.00677885
0.00501126
0.00321738
0.00118518
-0.000413126
0.470807
0.473286
0.475038
0.476219
0.477038
0.477502
0.477617
0.477405
0.476886
0.47608
0.475004
0.473671
0.47209
0.470266
0.468198
0.465877
0.46329
0.460415
0.45722
0.453665
0.449696
0.44525
0.440247
0.434593
0.428188
0.42091
0.412632
0.403351
0.39308
0.381043
0.366013
0.348199
0.325927
0.300762
0.281849
0.267137
0.25368
0.240522
0.227086
0.21242
0.193603
0.168604
0.146543
0.128968
0.114176
0.102359
0.0922843
0.0831734
0.075046
0.067901
0.0616126
0.0560569
0.0511291
0.0467338
0.0427873
0.0392194
0.0359711
0.0329938
0.0302468
0.0276963
0.0253138
0.0230756
0.0209614
0.0189537
0.0170374
0.0151991
0.0134267
0.0117094
0.0100366
0.00839836
0.00678606
0.00519482
0.00359992
0.00192709
0.000383025
0.473729
0.475693
0.477082
0.478016
0.478659
0.479016
0.479089
0.478895
0.47845
0.477769
0.476863
0.475744
0.474419
0.472889
0.471154
0.469205
0.467029
0.464602
0.461895
0.458866
0.45546
0.451606
0.447215
0.442182
0.43639
0.429686
0.421894
0.413169
0.403982
0.392944
0.376933
0.357578
0.326968
0.297118
0.277648
0.264698
0.252879
0.241286
0.22949
0.216585
0.197217
0.167564
0.137226
0.118157
0.102409
0.0916053
0.0826132
0.0740457
0.0663876
0.0598035
0.0541171
0.0491719
0.0448489
0.0410391
0.0376492
0.0346042
0.0318437
0.029319
0.0269908
0.0248272
0.0228023
0.0208945
0.0190861
0.0173623
0.0157104
0.0141195
0.0125802
0.0110839
0.00962282
0.00819
0.00677701
0.00537146
0.00398577
0.0026881
0.00120402
0.47698
0.478425
0.479443
0.480119
0.480574
0.480809
0.480826
0.480635
0.480249
0.479679
0.478934
0.478022
0.476949
0.475716
0.474322
0.47276
0.471016
0.469071
0.466896
0.464449
0.461677
0.458506
0.454836
0.450548
0.445513
0.439526
0.43223
0.424031
0.416794
0.408566
0.391896
0.382772
0.340696
0.277267
0.26683
0.260397
0.251627
0.242496
0.233753
0.227361
0.217011
0.153909
0.112213
0.103401
0.0870076
0.0790222
0.0719678
0.0638957
0.0567046
0.0508163
0.0458719
0.041659
0.0380484
0.0349155
0.0321572
0.029696
0.0274724
0.0254403
0.0235636
0.0218137
0.0201683
0.0186092
0.0171222
0.0156954
0.0143193
0.012986
0.0116887
0.0104217
0.00917995
0.00796
0.0067535
0.00554056
0.00437153
0.00346009
0.00204059
0.480474
0.481398
0.482042
0.482455
0.482714
0.482818
0.482768
0.482569
0.482231
0.481762
0.48117
0.480459
0.479636
0.478703
0.477657
0.476495
0.475206
0.473772
0.47217
0.470363
0.468301
0.465913
0.463088
0.459686
0.455585
0.450469
0.443397
0.43527
0.433077
0.434238
0.416378
0.429986
0.485466
0.174685
0.237179
0.248768
0.248199
0.245783
0.245243
0.256863
0.31928
0.00955676
0.0653462
0.0792331
0.0616574
0.0630681
0.0610312
0.0529708
0.0459556
0.0409115
0.0368804
0.0335392
0.0307626
0.0284064
0.0263576
0.0245406
0.0229012
0.0213987
0.0200026
0.0186897
0.0174424
0.0162472
0.0150937
0.0139741
0.0128823
0.0118137
0.0107647
0.00973249
0.00871518
0.00771283
0.00671737
0.0057014
0.00475363
0.00423456
0.00288308
0.484126
0.484534
0.484804
0.484953
0.485013
0.48498
0.484855
0.484641
0.484343
0.483968
0.483521
0.483007
0.482432
0.481799
0.481108
0.480356
0.479539
0.478644
0.477653
0.476541
0.475266
0.473766
0.471918
0.469536
0.466495
0.46217
0.453685
0.442236
0.452271
0.477438
0.479782
0.270481
-1.59934
-2.44816
-1.26598
-0.497254
0.0204085
0.468241
0.985866
1.75449
2.9366
2.09648
0.22495
0.0162037
0.0188656
0.0442943
0.0544786
0.0429882
0.0344804
0.0301932
0.0272007
0.0248619
0.0230495
0.0215756
0.0203137
0.0191976
0.0181843
0.0172429
0.0163514
0.0154938
0.0146589
0.0138384
0.013027
0.0122211
0.0114187
0.0106189
0.00982146
0.00902667
0.00823601
0.0074532
0.00667055
0.00585326
0.00512836
0.00500275
0.00372154
0.487852
0.487753
0.487656
0.487544
0.487403
0.487232
0.487028
0.486794
0.48653
0.486243
0.485936
0.485615
0.485285
0.484951
0.484616
0.484282
0.483948
0.483611
0.483264
0.482894
0.482484
0.482002
0.481329
0.480255
0.478798
0.475917
0.464055
0.438697
0.437878
0.477821
-1.27416
-4.7987
-2.60607
-1.94309
-1.18126
-0.535252
-0.0019138
0.491382
1.02474
1.67083
2.43308
3.09753
5.28656
1.76254
0.0188601
0.0592616
0.0585379
0.0329865
0.0209778
0.0180974
0.0166677
0.0156169
0.0149663
0.0145029
0.0141061
0.0137405
0.0133866
0.0130297
0.0126595
0.0122693
0.0118552
0.0114155
0.0109503
0.0104607
0.00994915
0.00941869
0.00887277
0.00831499
0.00775024
0.007186
0.00661507
0.00599547
0.00549202
0.00575582
0.00454588
0.491572
0.490981
0.490527
0.490159
0.489823
0.489514
0.489231
0.488973
0.48874
0.488534
0.488362
0.488228
0.488138
0.4881
0.48812
0.488204
0.488359
0.488588
0.4889
0.489302
0.48982
0.490499
0.491344
0.492442
0.495038
0.499143
0.491085
0.477519
0.298722
-2.8124
-2.12984
-2.69334
-2.08318
-1.53689
-0.980726
-0.460598
0.0157916
0.474446
0.950839
1.47101
2.02735
2.57399
3.18403
2.62331
3.31549
0.199754
0.0198095
0.00622919
-0.00208686
0.00203777
0.00466609
0.00577277
0.00662672
0.00731628
0.00784654
0.00826197
0.00858499
0.00882339
0.0089814
0.00906278
0.00907173
0.00901327
0.00889327
0.00871818
0.00849496
0.00823081
0.00793299
0.00760857
0.00726589
0.00691627
0.00655306
0.0061274
0.00584092
0.00648491
0.00534604
0.495205
0.494145
0.493348
0.492735
0.492211
0.491768
0.491408
0.491124
0.490918
0.49079
0.490747
0.490792
0.490936
0.491187
0.491555
0.492052
0.492688
0.493476
0.494433
0.495583
0.496979
0.498752
0.501135
0.504648
0.512511
0.528278
0.507885
-0.0989467
-2.48207
-1.98916
-1.73947
-1.76165
-1.49644
-1.14058
-0.744172
-0.342221
0.0512188
0.439755
0.833145
1.235
1.63128
1.98704
2.25222
2.23117
2.484
2.98181
0.580605
-0.0105048
-0.0312824
-0.0152881
-0.00735386
-0.00384465
-0.00146991
0.000303825
0.00170906
0.00287979
0.00386702
0.0046937
0.00537506
0.00592345
0.00635045
0.00666767
0.00688685
0.00701977
0.00707812
0.00707339
0.00701672
0.0069187
0.00679115
0.00664916
0.00648676
0.00624855
0.0061715
0.00718133
0.00611207
0.498678
0.497175
0.496056
0.495212
0.494508
0.493939
0.493504
0.493196
0.493014
0.49296
0.493037
0.493255
0.493623
0.494152
0.494857
0.495753
0.496856
0.498182
0.499747
0.50156
0.503626
0.506037
0.50902
0.511847
0.513495
0.534256
0.641149
1.69703
-0.357528
-0.922692
-1.07725
-1.11736
-1.00039
-0.784804
-0.513176
-0.215344
0.0915405
0.400204
0.706969
1.00453
1.27572
1.49064
1.60664
1.5651
1.40753
0.833593
-1.24906
-0.146206
-0.0369959
-0.0158147
-0.0142729
-0.0115336
-0.00859681
-0.00620701
-0.00413909
-0.00229984
-0.000686877
0.00070713
0.00189732
0.00290042
0.00373381
0.00441521
0.0049622
0.00539188
0.00572076
0.00596466
0.00613861
0.00625671
0.00633421
0.00638988
0.00641847
0.00635849
0.00648037
0.0078367
0.00683435
0.501919
0.500006
0.498589
0.49753
0.496661
0.495974
0.495469
0.495138
0.494979
0.494992
0.495184
0.495563
0.496142
0.496936
0.497963
0.499242
0.500796
0.502645
0.504802
0.507254
0.50993
0.512796
0.515785
0.515996
0.505915
0.508894
1.95906
1.231
0.277616
-0.266835
-0.529504
-0.630142
-0.602946
-0.485092
-0.308395
-0.0975291
0.130084
0.362545
0.589975
0.800428
0.976419
1.09314
1.11856
1.01505
0.747412
0.194075
-0.773618
-1.51261
-0.0107681
-0.00753912
-0.0180647
-0.0181001
-0.0152199
-0.0124035
-0.00973467
-0.00725196
-0.0050287
-0.00308229
-0.0013995
4.12484e-05
0.00126373
0.0022922
0.00315035
0.00386076
0.00444481
0.00492264
0.00531311
0.00563376
0.00590313
0.00614356
0.00635051
0.00645694
0.00676433
0.00844303
0.00750372
0.504864
0.502579
0.500892
0.499639
0.49862
0.497825
0.497257
0.496905
0.496766
0.496841
0.497138
0.497666
0.498441
0.499481
0.500809
0.502453
0.504442
0.506808
0.50958
0.512764
0.516371
0.520572
0.525812
0.529836
0.508618
0.552546
1.22268
0.990272
0.503828
0.107233
-0.143792
-0.270774
-0.296177
-0.244234
-0.137788
0.00353146
0.163783
0.329915
0.489947
0.630772
0.736364
0.786936
0.759393
0.629096
0.372972
-0.0311088
-0.526892
-0.765517
-0.0852359
-0.0098825
-0.0317785
-0.0280301
-0.022931
-0.018789
-0.0151931
-0.0119708
-0.00911441
-0.00662057
-0.0044625
-0.00260622
-0.00101798
0.000334547
0.00148179
0.00245205
0.00327158
0.00396476
0.00455416
0.00506058
0.00550571
0.00591517
0.00628518
0.00654368
0.00702046
0.00899288
0.00811159
0.507451
0.50484
0.502914
0.50149
0.500337
0.499449
0.498824
0.498453
0.498333
0.498464
0.498855
0.499516
0.500467
0.50173
0.503333
0.505311
0.507706
0.510565
0.513929
0.517839
0.522451
0.527801
0.531155
0.534712
0.603567
2.044
1.38885
1.00358
0.640187
0.335726
0.117874
-0.01299
-0.066761
-0.0578864
-0.00206026
0.0856535
0.191599
0.303388
0.409115
0.496339
0.551314
0.558829
0.502966
0.368953
0.14647
-0.164609
-0.537343
-0.937349
-1.62754
-0.107388
-0.0359537
-0.0331488
-0.0301546
-0.0248774
-0.0202754
-0.0163188
-0.0128493
-0.00983397
-0.00723128
-0.00499169
-0.00306924
-0.00142252
-1.40261e-05
0.00119026
0.00222131
0.00310752
0.00387491
0.00454731
0.00514928
0.00570943
0.0062247
0.00661864
0.00724614
0.00947947
0.00865012
0.50963
0.50674
0.504611
0.50304
0.501775
0.500805
0.500133
0.499747
0.499642
0.499821
0.500293
0.50107
0.502173
0.503629
0.505472
0.507745
0.510501
0.513808
0.517738
0.522374
0.527973
0.535189
0.541075
0.522751
1.47501
1.55798
1.28513
0.995015
0.71761
0.477615
0.29255
0.167696
0.100005
0.0815066
0.101775
0.149543
0.213574
0.282924
0.346779
0.394147
0.413712
0.394086
0.324669
0.197263
0.00855055
-0.236469
-0.520541
-0.819016
-1.09947
-0.999378
-0.0225916
-0.0433878
-0.037748
-0.0305161
-0.024903
-0.0201975
-0.0161375
-0.0126443
-0.00964345
-0.00706494
-0.00484922
-0.00294553
-0.00130951
9.81343e-05
0.00131267
0.00236606
0.0032874
0.00410321
0.00484055
0.00553067
0.00617113
0.00668176
0.00743905
0.00989677
0.00911233
0.511355
0.508238
0.505944
0.504254
0.502897
0.501862
0.501151
0.500752
0.500661
0.500879
0.501417
0.502288
0.503516
0.50513
0.507169
0.509681
0.512732
0.516404
0.520824
0.526221
0.532821
0.540565
0.553704
0.598531
1.70437
1.42776
1.19868
0.973736
0.757622
0.564574
0.407015
0.291216
0.217577
0.182132
0.178109
0.197168
0.230234
0.267958
0.300925
0.319748
0.31529
0.279121
0.204348
0.0868646
-0.0730727
-0.269291
-0.489351
-0.718725
-0.951942
-1.23295
-0.102679
-0.0567225
-0.0433812
-0.0355887
-0.0289289
-0.0234287
-0.0188503
-0.0149632
-0.0116354
-0.0087779
-0.00632031
-0.00420428
-0.00238008
-0.000804188
0.000562105
0.0017537
0.00280223
0.00373641
0.00458543
0.00538268
0.00612631
0.00673307
0.00759724
0.0102396
0.0094922
0.512589
0.509301
0.506883
0.505103
0.503677
0.502593
0.501852
0.501444
0.501362
0.501611
0.502198
0.503141
0.504462
0.506193
0.508375
0.511059
0.514307
0.518198
0.522844
0.528437
0.535111
0.54243
0.551656
0.571987
1.33955
1.25
1.10809
0.943626
0.774569
0.616045
0.479717
0.372573
0.296951
0.251332
0.23136
0.230788
0.242237
0.257757
0.269213
0.268624
0.248571
0.202747
0.126724
0.0189065
-0.118425
-0.278283
-0.448858
-0.614605
-0.756639
-0.843393
-0.0748535
-0.0546743
-0.0454379
-0.0380937
-0.0313603
-0.025653
-0.0208334
-0.0167046
-0.0131516
-0.0100908
-0.00745177
-0.00517407
-0.00320549
-0.00150003
-1.66909e-05
0.00128155
0.00242822
0.00345373
0.00438885
0.00526868
0.00609179
0.00677261
0.0077191
0.0105036
0.00978476
0.513306
0.509905
0.507404
0.505565
0.504093
0.502976
0.502216
0.501802
0.501727
0.501995
0.502615
0.503604
0.504987
0.506794
0.509066
0.511853
0.515212
0.519209
0.523919
0.529458
0.535843
0.542452
0.549471
0.563979
1.13917
1.1246
1.04006
0.918106
0.780978
0.645318
0.52324
0.422412
0.346322
0.294886
0.265211
0.252383
0.250174
0.251626
0.249545
0.236958
0.207613
0.156565
0.0808864
-0.0195463
-0.141261
-0.276562
-0.413203
-0.534208
-0.616627
-0.626553
-0.0665446
-0.0525601
-0.0456647
-0.0390774
-0.0326549
-0.0270047
-0.0221112
-0.0178601
-0.0141736
-0.0109834
-0.00822444
-0.0058378
-0.00377096
-0.00197689
-0.000413287
0.000958164
0.00217222
0.00326042
0.00425465
0.00519116
0.00606881
0.00680041
0.00780339
0.0106856
0.00998618
0.513486
0.510031
0.507492
0.505625
0.504131
0.502999
0.50223
0.501812
0.501741
0.502018
0.502654
0.503665
0.505075
0.506917
0.50923
0.512062
0.515468
0.519504
0.524229
0.529718
0.535934
0.542227
0.548618
0.561481
1.06141
1.06916
1.00944
0.907757
0.785916
0.66101
0.545515
0.44751
0.371042
0.31668
0.282212
0.263358
0.25445
0.249028
0.240382
0.222049
0.188353
0.135011
0.0597971
-0.0367246
-0.15052
-0.27351
-0.393193
-0.492401
-0.549114
-0.53744
-0.0641127
-0.0519538
-0.0457513
-0.0395141
-0.0332772
-0.0276781
-0.0227611
-0.0184556
-0.0147047
-0.0114494
-0.00862877
-0.00618544
-0.00406715
-0.00222651
-0.000620666
0.000789343
0.0020389
0.00316012
0.00418548
0.00515183
0.00605819
0.00681652
0.00784927
0.0107833
0.0100938
0.513122
0.509674
0.507139
0.505275
0.503784
0.502654
0.501887
0.50147
0.501398
0.501674
0.502308
0.503316
0.504722
0.506558
0.508864
0.511689
0.515087
0.519117
0.523839
0.529334
0.535569
0.541896
0.548341
0.561357
1.07212
1.08118
1.0208
0.91756
0.793917
0.667287
0.550297
0.451074
0.373657
0.318584
0.283601
0.264389
0.25524
0.24966
0.240912
0.222501
0.188737
0.13532
0.0600114
-0.0366363
-0.15059
-0.273769
-0.393665
-0.49309
-0.549996
-0.538417
-0.0642599
-0.052076
-0.0458603
-0.0396097
-0.0333596
-0.0277489
-0.0228219
-0.0185076
-0.0147491
-0.0114872
-0.00866071
-0.00621225
-0.00408939
-0.00224469
-0.000635189
0.00077813
0.00203071
0.00315473
0.00418272
0.00515159
0.00606037
0.00682092
0.00785626
0.0107953
0.0101063
0.512214
0.508833
0.506346
0.504518
0.503054
0.501944
0.501188
0.500775
0.5007
0.500965
0.501578
0.502558
0.503927
0.505717
0.507969
0.510732
0.514068
0.518043
0.522742
0.528294
0.534735
0.541448
0.54866
0.563698
1.17472
1.16264
1.07501
0.94777
0.804904
0.663924
0.537312
0.432832
0.353926
0.300398
0.269222
0.255359
0.252462
0.253472
0.251102
0.238308
0.20878
0.157521
0.0815635
-0.0192427
-0.141435
-0.277311
-0.414604
-0.536294
-0.619355
-0.62968
-0.0669945
-0.0529295
-0.045992
-0.0393633
-0.0329009
-0.0272158
-0.0222923
-0.0180151
-0.0143059
-0.0110959
-0.00831959
-0.00591763
-0.0038372
-0.00203101
-0.000456519
0.000924796
0.00214787
0.00324442
0.00424649
0.00519051
0.00607537
0.0068136
0.00782427
0.0107217
0.0100235
0.510774
0.507517
0.505123
0.503361
0.501948
0.500875
0.500141
0.499736
0.499654
0.499897
0.500474
0.501401
0.5027
0.504403
0.506549
0.509191
0.512394
0.516241
0.520856
0.526454
0.533203
0.540701
0.550427
0.572146
1.41225
1.31963
1.16884
0.993603
0.814003
0.646189
0.502194
0.389012
0.308817
0.259859
0.237533
0.235368
0.245787
0.260664
0.271719
0.270855
0.250552
0.204421
0.127963
0.019537
-0.118594
-0.279433
-0.45114
-0.61812
-0.761439
-0.849335
-0.0756459
-0.055302
-0.0459835
-0.0385669
-0.0317656
-0.0260002
-0.0211308
-0.0169592
-0.0133689
-0.0102756
-0.00760808
-0.00530521
-0.00331429
-0.0015889
-8.76368e-05
0.00122684
0.00238836
0.0034276
0.00437562
0.00526781
0.00610279
0.0067945
0.00775365
0.0105631
0.00984639
0.50882
0.505747
0.503485
0.50182
0.500482
0.499462
0.498761
0.498367
0.498276
0.498487
0.499011
0.499861
0.501058
0.502631
0.504618
0.507068
0.510046
0.513637
0.517979
0.523316
0.529914
0.537793
0.551853
0.601631
1.83445
1.5348
1.28711
1.0438
0.811312
0.604634
0.436261
0.312203
0.232472
0.192686
0.185685
0.202796
0.234658
0.271686
0.30426
0.322843
0.318157
0.281651
0.206333
0.0880281
-0.0730402
-0.270683
-0.492393
-0.723594
-0.958931
-1.24282
-0.103957
-0.0576202
-0.0441366
-0.0362389
-0.0294843
-0.0239038
-0.0192574
-0.0153116
-0.011933
-0.00903108
-0.00653444
-0.00438392
-0.00252908
-0.000925823
0.000465078
0.00167897
0.0027479
0.00370095
0.00456768
0.0053819
0.00614182
0.00676353
0.00764509
0.0103218
0.00957722
0.506384
0.503547
0.501459
0.499918
0.498678
0.497728
0.497069
0.49669