/*--------------------------------*- C++ -*----------------------------------*\
  =========                 |
  \\      /  F ield         | OpenFOAM: The Open Source CFD Toolbox
   \\    /   O peration     | Website:  https://openfoam.org
    \\  /    A nd           | Version:  7
     \\/     M anipulation  |
\*---------------------------------------------------------------------------*/
FoamFile
{
    version     2.0;
    format      ascii;
    class       volVectorField;
    location    "0";
    object      U;
}
// * * * * * * * * * * * * * * * * * * * * * * * * * * * * * * * * * * * * * //

dimensions      [0 1 -1 0 0 0 0];

internalField   nonuniform List<vector> 
5625
(
(0.000695003 0.000147247 0)
(0.000592977 0.000127892 0)
(0.000428704 7.49064e-05 0)
(0.000311117 4.20505e-05 0)
(0.000242475 2.42002e-05 0)
(0.000199828 1.44607e-05 0)
(0.000171509 9.02412e-06 0)
(0.000152182 5.85551e-06 0)
(0.000138812 3.89205e-06 0)
(0.000129555 2.59302e-06 0)
(0.00012328 1.6812e-06 0)
(0.000119252 1.00908e-06 0)
(0.000116977 4.94178e-07 0)
(0.000116099 8.78612e-08 0)
(0.000116358 -2.39937e-07 0)
(0.000117555 -5.0855e-07 0)
(0.000119533 -7.30757e-07 0)
(0.000122161 -9.15135e-07 0)
(0.00012533 -1.06745e-06 0)
(0.000128946 -1.19155e-06 0)
(0.000132921 -1.28992e-06 0)
(0.000137174 -1.36413e-06 0)
(0.00014163 -1.41509e-06 0)
(0.000146212 -1.44334e-06 0)
(0.000150849 -1.44921e-06 0)
(0.000155469 -1.43298e-06 0)
(0.00016 -1.39506e-06 0)
(0.000164375 -1.33602e-06 0)
(0.000168527 -1.25676e-06 0)
(0.000172394 -1.15848e-06 0)
(0.000175917 -1.04276e-06 0)
(0.000179044 -9.11454e-07 0)
(0.000181728 -7.66704e-07 0)
(0.000183931 -6.10818e-07 0)
(0.00018562 -4.46198e-07 0)
(0.000186771 -2.75272e-07 0)
(0.000187367 -1.00442e-07 0)
(0.000187399 7.59292e-08 0)
(0.000186867 2.51514e-07 0)
(0.000185775 4.24003e-07 0)
(0.000184137 5.91102e-07 0)
(0.000181974 7.50541e-07 0)
(0.000179311 9.00124e-07 0)
(0.000176185 1.0378e-06 0)
(0.000172635 1.16174e-06 0)
(0.000168706 1.27043e-06 0)
(0.000164447 1.36275e-06 0)
(0.000159913 1.438e-06 0)
(0.000155156 1.49592e-06 0)
(0.000150232 1.53669e-06 0)
(0.000145192 1.56086e-06 0)
(0.00014009 1.56934e-06 0)
(0.000134973 1.5633e-06 0)
(0.000129885 1.54412e-06 0)
(0.000124866 1.51333e-06 0)
(0.000119952 1.47256e-06 0)
(0.000115172 1.42348e-06 0)
(0.00011055 1.36778e-06 0)
(0.000106107 1.30715e-06 0)
(0.000101856 1.24326e-06 0)
(9.78051e-05 1.17778e-06 0)
(9.39584e-05 1.11239e-06 0)
(9.03136e-05 1.04882e-06 0)
(8.6863e-05 9.88948e-07 0)
(8.3593e-05 9.34894e-07 0)
(8.04829e-05 8.89228e-07 0)
(7.75043e-05 8.5533e-07 0)
(7.46183e-05 8.38076e-07 0)
(7.17716e-05 8.45299e-07 0)
(6.88876e-05 8.90246e-07 0)
(6.58643e-05 9.94818e-07 0)
(6.2578e-05 1.20056e-06 0)
(5.86895e-05 1.60765e-06 0)
(5.31001e-05 2.37176e-06 0)
(4.61916e-05 3.32375e-06 0)
(0.000985623 0.000289772 0)
(0.000967932 0.000304616 0)
(0.000841715 0.000216174 0)
(0.00070986 0.000144702 0)
(0.000605917 9.6807e-05 0)
(0.000527247 6.55724e-05 0)
(0.000468338 4.51778e-05 0)
(0.000424777 3.15475e-05 0)
(0.000392954 2.20988e-05 0)
(0.000370113 1.52884e-05 0)
(0.000354243 1.02006e-05 0)
(0.000343884 6.28047e-06 0)
(0.000337955 3.18185e-06 0)
(0.000335643 6.81963e-07 0)
(0.000336319 -1.36659e-06 0)
(0.000339487 -3.06356e-06 0)
(0.000344746 -4.4775e-06 0)
(0.000351758 -5.65583e-06 0)
(0.000360234 -6.63133e-06 0)
(0.000369917 -7.42638e-06 0)
(0.000380573 -8.056e-06 0)
(0.000391984 -8.52998e-06 0)
(0.000403939 -8.85456e-06 0)
(0.000416238 -9.03376e-06 0)
(0.000428681 -9.07048e-06 0)
(0.000441075 -8.96738e-06 0)
(0.000453231 -8.72769e-06 0)
(0.000464963 -8.35579e-06 0)
(0.000476095 -7.85767e-06 0)
(0.000486459 -7.2412e-06 0)
(0.0004959 -6.51617e-06 0)
(0.000504278 -5.69415e-06 0)
(0.000511468 -4.78818e-06 0)
(0.000517365 -3.81237e-06 0)
(0.000521884 -2.78145e-06 0)
(0.000524958 -1.71038e-06 0)
(0.000526544 -6.14059e-07 0)
(0.000526616 4.92755e-07 0)
(0.000525168 1.5955e-06 0)
(0.000522216 2.67978e-06 0)
(0.000517795 3.73134e-06 0)
(0.000511956 4.73623e-06 0)
(0.000504774 5.68104e-06 0)
(0.000496336 6.55331e-06 0)
(0.000486749 7.34199e-06 0)
(0.000476133 8.03788e-06 0)
(0.000464617 8.63406e-06 0)
(0.000452341 9.12608e-06 0)
(0.000439447 9.51207e-06 0)
(0.000426079 9.7927e-06 0)
(0.000412378 9.97093e-06 0)
(0.000398482 1.00518e-05 0)
(0.000384519 1.0042e-05 0)
(0.000370608 9.94963e-06 0)
(0.000356856 9.7837e-06 0)
(0.000343359 9.55397e-06 0)
(0.000330198 9.27057e-06 0)
(0.000317441 8.94387e-06 0)
(0.000305142 8.5843e-06 0)
(0.000293339 8.20231e-06 0)
(0.000282059 7.80833e-06 0)
(0.000271312 7.41292e-06 0)
(0.000261095 7.02691e-06 0)
(0.000251389 6.66174e-06 0)
(0.000242162 6.32996e-06 0)
(0.000233362 6.046e-06 0)
(0.00022492 5.82739e-06 0)
(0.000216744 5.69685e-06 0)
(0.000208715 5.68595e-06 0)
(0.000200678 5.84041e-06 0)
(0.000192449 6.22546e-06 0)
(0.000183867 6.94127e-06 0)
(0.000174568 8.17534e-06 0)
(0.000163283 1.01292e-05 0)
(0.000151337 1.22123e-05 0)
(0.00102836 0.000252815 0)
(0.00105591 0.000355159 0)
(0.00100865 0.000315296 0)
(0.000926734 0.000249238 0)
(0.000841433 0.000188496 0)
(0.000765011 0.000139929 0)
(0.000701282 0.000103096 0)
(0.000650512 7.55001e-05 0)
(0.000611449 5.46636e-05 0)
(0.000582427 3.86766e-05 0)
(0.000561859 2.61808e-05 0)
(0.000548372 1.62327e-05 0)
(0.000540826 8.18001e-06 0)
(0.000538285 1.56912e-06 0)
(0.00053998 -3.91803e-06 0)
(0.000545272 -8.50622e-06 0)
(0.00055362 -1.2355e-05 0)
(0.000564559 -1.55774e-05 0)
(0.000577675 -1.82532e-05 0)
(0.000592597 -2.04379e-05 0)
(0.000608978 -2.21689e-05 0)
(0.000626491 -2.34714e-05 0)
(0.000644822 -2.43618e-05 0)
(0.000663665 -2.48509e-05 0)
(0.000682719 -2.4947e-05 0)
(0.000701688 -2.46581e-05 0)
(0.000720284 -2.39935e-05 0)
(0.000738226 -2.29659e-05 0)
(0.000755244 -2.15922e-05 0)
(0.000771084 -1.98941e-05 0)
(0.000785508 -1.78987e-05 0)
(0.000798304 -1.56375e-05 0)
(0.000809281 -1.31461e-05 0)
(0.00081828 -1.04629e-05 0)
(0.000825172 -7.628e-06 0)
(0.000829855 -4.68222e-06 0)
(0.000832261 -1.66624e-06 0)
(0.000832351 1.37964e-06 0)
(0.000830118 4.41558e-06 0)
(0.000825582 7.40221e-06 0)
(0.000818795 1.03007e-05 0)
(0.000809836 1.30729e-05 0)
(0.000798812 1.56824e-05 0)
(0.00078586 1.80954e-05 0)
(0.000771138 2.02818e-05 0)
(0.000754827 2.22166e-05 0)
(0.000737123 2.38808e-05 0)
(0.000718238 2.5262e-05 0)
(0.000698386 2.63547e-05 0)
(0.000677786 2.71602e-05 0)
(0.000656654 2.76862e-05 0)
(0.000635198 2.79455e-05 0)
(0.000613613 2.79559e-05 0)
(0.000592082 2.77389e-05 0)
(0.000570769 2.73186e-05 0)
(0.000549822 2.67211e-05 0)
(0.000529365 2.5974e-05 0)
(0.000509504 2.51052e-05 0)
(0.000490323 2.41433e-05 0)
(0.000471884 2.31167e-05 0)
(0.00045423 2.20539e-05 0)
(0.00043738 2.09837e-05 0)
(0.000421332 1.99352e-05 0)
(0.000406065 1.89388e-05 0)
(0.000391533 1.80272e-05 0)
(0.00037767 1.72362e-05 0)
(0.000364383 1.66072e-05 0)
(0.000351557 1.61896e-05 0)
(0.00033905 1.60442e-05 0)
(0.000326687 1.62471e-05 0)
(0.000314292 1.6889e-05 0)
(0.000301769 1.80727e-05 0)
(0.000288892 1.99135e-05 0)
(0.000274369 2.23732e-05 0)
(0.000259715 2.45225e-05 0)
(0.00102606 0.000195834 0)
(0.00106557 0.000342159 0)
(0.00106718 0.000354795 0)
(0.00103311 0.000314313 0)
(0.000981026 0.000259127 0)
(0.000924861 0.000205546 0)
(0.00087236 0.000159205 0)
(0.000827152 0.000120942 0)
(0.000790478 8.98559e-05 0)
(0.000762328 6.46467e-05 0)
(0.000742121 4.40976e-05 0)
(0.00072907 2.72078e-05 0)
(0.000722352 1.31995e-05 0)
(0.000721191 1.48364e-06 0)
(0.000724879 -8.37995e-06 0)
(0.000732784 -1.67174e-05 0)
(0.000744337 -2.37687e-05 0)
(0.000759025 -2.97084e-05 0)
(0.000776377 -3.46621e-05 0)
(0.000795954 -3.87181e-05 0)
(0.000817337 -4.1937e-05 0)
(0.000840126 -4.43595e-05 0)
(0.000863929 -4.6012e-05 0)
(0.00088836 -4.69128e-05 0)
(0.000913038 -4.7076e-05 0)
(0.000937587 -4.65156e-05 0)
(0.000961638 -4.52491e-05 0)
(0.000984832 -4.33e-05 0)
(0.00100682 -4.07003e-05 0)
(0.00102728 -3.7491e-05 0)
(0.0010459 -3.37229e-05 0)
(0.00106241 -2.94554e-05 0)
(0.00107657 -2.47555e-05 0)
(0.00108817 -1.96953e-05 0)
(0.00109704 -1.435e-05 0)
(0.00110307 -8.79601e-06 0)
(0.00110615 -3.10938e-06 0)
(0.00110625 2.63459e-06 0)
(0.00110334 8.36156e-06 0)
(0.00109746 1.3998e-05 0)
(0.00108867 1.94712e-05 0)
(0.00107707 2.47099e-05 0)
(0.00106279 2.96457e-05 0)
(0.00104601 3.4215e-05 0)
(0.00102694 3.83612e-05 0)
(0.00100579 4.2037e-05 0)
(0.000982823 4.52064e-05 0)
(0.000958311 4.78459e-05 0)
(0.000932531 4.99447e-05 0)
(0.000905764 5.15047e-05 0)
(0.000878286 5.25394e-05 0)
(0.000850365 5.30728e-05 0)
(0.000822255 5.31374e-05 0)
(0.000794191 5.27727e-05 0)
(0.000766385 5.20236e-05 0)
(0.000739028 5.09386e-05 0)
(0.000712283 4.95689e-05 0)
(0.000686287 4.79667e-05 0)
(0.000661152 4.61851e-05 0)
(0.000636961 4.42772e-05 0)
(0.000613771 4.22958e-05 0)
(0.000591611 4.0294e-05 0)
(0.000570487 3.83254e-05 0)
(0.000550376 3.64446e-05 0)
(0.000531233 3.47088e-05 0)
(0.000512984 3.3179e-05 0)
(0.000495533 3.19214e-05 0)
(0.000478762 3.10097e-05 0)
(0.000462531 3.05262e-05 0)
(0.000446681 3.05596e-05 0)
(0.00043107 3.11963e-05 0)
(0.00041568 3.24992e-05 0)
(0.000400361 3.44719e-05 0)
(0.000383695 3.68815e-05 0)
(0.00036716 3.87459e-05 0)
(0.00101847 0.000153633 0)
(0.0010564 0.000308394 0)
(0.00108148 0.000354175 0)
(0.00108045 0.000340075 0)
(0.00105912 0.000299119 0)
(0.0010274 0.000249876 0)
(0.000992808 0.000201496 0)
(0.000960141 0.000157749 0)
(0.000932109 0.000119686 0)
(0.000909999 8.7141e-05 0)
(0.000894221 5.94945e-05 0)
(0.00088469 3.60244e-05 0)
(0.000881058 1.60578e-05 0)
(0.000882859 -9.77774e-07 0)
(0.000889579 -1.55464e-05 0)
(0.000900699 -2.80126e-05 0)
(0.00091571 -3.86563e-05 0)
(0.000934122 -4.76875e-05 0)
(0.000955463 -5.526e-05 0)
(0.000979271 -6.14834e-05 0)
(0.0010051 -6.64332e-05 0)
(0.0010325 -7.01593e-05 0)
(0.00106103 -7.26944e-05 0)
(0.00109025 -7.40606e-05 0)
(0.00111973 -7.42757e-05 0)
(0.00114902 -7.33588e-05 0)
(0.00117769 -7.13354e-05 0)
(0.00120532 -6.82413e-05 0)
(0.0012315 -6.41257e-05 0)
(0.00125584 -5.9053e-05 0)
(0.00127798 -5.31028e-05 0)
(0.0012976 -4.63692e-05 0)
(0.00131442 -3.89574e-05 0)
(0.00132819 -3.09813e-05 0)
(0.00133871 -2.25591e-05 0)
(0.00134585 -1.38102e-05 0)
(0.00134949 -4.85342e-06 0)
(0.00134958 4.19434e-06 0)
(0.00134611 1.32177e-05 0)
(0.0013391 2.21023e-05 0)
(0.00132863 3.07348e-05 0)
(0.00131481 3.90037e-05 0)
(0.0012978 4.68012e-05 0)
(0.0012778 5.40269e-05 0)
(0.00125504 6.05909e-05 0)
(0.00122981 6.64184e-05 0)
(0.00120241 7.14519e-05 0)
(0.00117314 7.56538e-05 0)
(0.00114235 7.90068e-05 0)
(0.00111036 8.15132e-05 0)
(0.00107751 8.31939e-05 0)
(0.00104412 8.40858e-05 0)
(0.00101048 8.42395e-05 0)
(0.00097688 8.37167e-05 0)
(0.000943566 8.2587e-05 0)
(0.000910768 8.09261e-05 0)
(0.00087868 7.88136e-05 0)
(0.000847469 7.63311e-05 0)
(0.000817266 7.35608e-05 0)
(0.000788175 7.05852e-05 0)
(0.000760267 6.74861e-05 0)
(0.000733583 6.43448e-05 0)
(0.000708135 6.12427e-05 0)
(0.000683907 5.82613e-05 0)
(0.000660857 5.5484e-05 0)
(0.000638916 5.29964e-05 0)
(0.000617994 5.08873e-05 0)
(0.00059798 4.92489e-05 0)
(0.00057875 4.81748e-05 0)
(0.000560171 4.77532e-05 0)
(0.000542132 4.80503e-05 0)
(0.000524663 4.90822e-05 0)
(0.000507632 5.07694e-05 0)
(0.000489452 5.27969e-05 0)
(0.000471538 5.42905e-05 0)
(0.00101254 0.000123294 0)
(0.00104529 0.000270237 0)
(0.00107966 0.000332686 0)
(0.00109856 0.000338759 0)
(0.00110056 0.000313018 0)
(0.00109087 0.000272281 0)
(0.00107499 0.000226691 0)
(0.00105734 0.000181736 0)
(0.00104102 0.000140021 0)
(0.00102799 0.000102525 0)
(0.00101933 6.93847e-05 0)
(0.00101555 4.03461e-05 0)
(0.00101675 1.50072e-05 0)
(0.0010228 -7.05683e-06 0)
(0.00103345 -2.62359e-05 0)
(0.00104833 -4.28621e-05 0)
(0.00106706 -5.72042e-05 0)
(0.00108922 -6.94713e-05 0)
(0.00111438 -7.98195e-05 0)
(0.00114209 -8.83604e-05 0)
(0.0011719 -9.51702e-05 0)
(0.00120336 -0.000100298 0)
(0.00123599 -0.000103774 0)
(0.00126933 -0.000105618 0)
(0.0013029 -0.000105848 0)
(0.0013362 -0.000104483 0)
(0.00136878 -0.000101556 0)
(0.00140014 -9.71149e-05 0)
(0.00142984 -9.12267e-05 0)
(0.00145743 -8.39821e-05 0)
(0.00148251 -7.54943e-05 0)
(0.00150471 -6.58973e-05 0)
(0.00152373 -5.53419e-05 0)
(0.00153928 -4.39906e-05 0)
(0.00155116 -3.20115e-05 0)
(0.0015592 -1.95735e-05 0)
(0.00156329 -6.84311e-06 0)
(0.00156338 6.01625e-06 0)
(0.00155943 1.88439e-05 0)
(0.00155149 3.14804e-05 0)
(0.00153963 4.37665e-05 0)
(0.00152397 5.55445e-05 0)
(0.0015047 6.66608e-05 0)
(0.00148202 7.69712e-05 0)
(0.00145621 8.63464e-05 0)
(0.00142758 9.46783e-05 0)
(0.00139646 0.000101884 0)
(0.00136322 0.000107909 0)
(0.00132824 0.000112728 0)
(0.0012919 0.000116345 0)
(0.00125457 0.000118788 0)
(0.0012166 0.00012011 0)
(0.00117835 0.000120383 0)
(0.00114013 0.000119693 0)
(0.00110223 0.000118139 0)
(0.0010649 0.000115827 0)
(0.00102836 0.000112871 0)
(0.000992808 0.000109383 0)
(0.000958388 0.000105481 0)
(0.000925222 0.000101278 0)
(0.000893393 9.68889e-05 0)
(0.000862954 9.24261e-05 0)
(0.000833926 8.80004e-05 0)
(0.000806302 8.37215e-05 0)
(0.000780047 7.96987e-05 0)
(0.0007551 7.60411e-05 0)
(0.000731382 7.28571e-05 0)
(0.000708796 7.02527e-05 0)
(0.000687237 6.83273e-05 0)
(0.00066659 6.71633e-05 0)
(0.000646767 6.68073e-05 0)
(0.000627815 6.72415e-05 0)
(0.000609585 6.83444e-05 0)
(0.000590328 6.97942e-05 0)
(0.000571411 7.08748e-05 0)
(0.00100876 0.000100526 0)
(0.00103647 0.000233261 0)
(0.00107329 0.000301377 0)
(0.00110311 0.000320381 0)
(0.00112109 0.000307271 0)
(0.00112883 0.000275694 0)
(0.00112956 0.000235187 0)
(0.00112658 0.000191806 0)
(0.00112269 0.000149071 0)
(0.00111995 0.000108833 0)
(0.00111978 7.19242e-05 0)
(0.00112303 3.85948e-05 0)
(0.00113016 8.78902e-06 0)
(0.00114133 -1.76897e-05 0)
(0.00115652 -4.10849e-05 0)
(0.00117555 -6.16359e-05 0)
(0.00119817 -7.95529e-05 0)
(0.00122407 -9.50066e-05 0)
(0.00125287 -0.000108127 0)
(0.00128418 -0.000119005 0)
(0.00131758 -0.000127701 0)
(0.0013526 -0.000134249 0)
(0.00138878 -0.000138667 0)
(0.00142564 -0.000140964 0)
(0.00146268 -0.000141149 0)
(0.00149937 -0.000139239 0)
(0.00153521 -0.000135269 0)
(0.00156968 -0.000129297 0)
(0.0016023 -0.000121409 0)
(0.00163257 -0.000111723 0)
(0.00166007 -0.00010039 0)
(0.00168439 -8.75895e-05 0)
(0.00170519 -7.35239e-05 0)
(0.00172218 -5.84116e-05 0)
(0.00173514 -4.2477e-05 0)
(0.0017439 -2.59432e-05 0)
(0.00174835 -9.02835e-06 0)
(0.00174842 8.05593e-06 0)
(0.0017441 2.5102e-05 0)
(0.00173541 4.19031e-05 0)
(0.00172243 5.82511e-05 0)
(0.0017053 7.39371e-05 0)
(0.00168418 8.87557e-05 0)
(0.00165933 0.000102512 0)
(0.00163102 0.000115031 0)
(0.00159961 0.000126164 0)
(0.00156545 0.000135801 0)
(0.00152896 0.000143867 0)
(0.00149055 0.000150327 0)
(0.00145064 0.000155187 0)
(0.00140964 0.000158485 0)
(0.00136795 0.000160293 0)
(0.00132595 0.000160704 0)
(0.00128397 0.000159835 0)
(0.00124234 0.000157816 0)
(0.00120134 0.000154788 0)
(0.0011612 0.000150899 0)
(0.00112214 0.0001463 0)
(0.00108432 0.000141142 0)
(0.00104788 0.000135575 0)
(0.0010129 0.000129748 0)
(0.00097946 0.000123805 0)
(0.00094758 0.000117888 0)
(0.000917265 0.000112135 0)
(0.000888489 0.00010668 0)
(0.000861202 0.000101655 0)
(0.000835336 9.71854e-05 0)
(0.000810808 9.33889e-05 0)
(0.000787528 9.0369e-05 0)
(0.000765392 8.8204e-05 0)
(0.000744321 8.69292e-05 0)
(0.000724361 8.65122e-05 0)
(0.00070533 8.68226e-05 0)
(0.000685349 8.75741e-05 0)
(0.000665751 8.82173e-05 0)
(0.00100648 8.26745e-05 0)
(0.00103016 0.000199098 0)
(0.00106651 0.000266024 0)
(0.00110179 0.000291767 0)
(0.00113001 0.000287637 0)
(0.00115054 0.000264025 0)
(0.00116472 0.000229107 0)
(0.00117462 0.000188719 0)
(0.00118238 0.000146715 0)
(0.00118983 0.000105466 0)
(0.00119842 6.63211e-05 0)
(0.00120914 2.99717e-05 0)
(0.00122265 -3.29473e-06 0)
(0.00123933 -3.34194e-05 0)
(0.00125934 -6.04608e-05 0)
(0.00128268 -8.45262e-05 0)
(0.00130922 -0.000105731 0)
(0.00133874 -0.000124175 0)
(0.00137097 -0.000139938 0)
(0.00140557 -0.000153068 0)
(0.00144213 -0.00016359 0)
(0.00148026 -0.000171511 0)
(0.00151947 -0.000176823 0)
(0.0015593 -0.000179514 0)
(0.00159922 -0.000179577 0)
(0.00163871 -0.000177021 0)
(0.00167724 -0.000171876 0)
(0.00171426 -0.000164207 0)
(0.00174924 -0.000154118 0)
(0.00178168 -0.000141757 0)
(0.00181111 -0.000127314 0)
(0.0018371 -0.000111019 0)
(0.0018593 -9.31362e-05 0)
(0.0018774 -7.39452e-05 0)
(0.00189118 -5.37334e-05 0)
(0.00190048 -3.27823e-05 0)
(0.00190519 -1.13624e-05 0)
(0.00190526 1.02671e-05 0)
(0.00190065 3.18534e-05 0)
(0.0018914 5.31435e-05 0)
(0.00187758 7.38793e-05 0)
(0.00185931 9.37969e-05 0)
(0.00183677 0.000112633 0)
(0.00181021 0.000130134 0)
(0.00177994 0.000146071 0)
(0.00174632 0.000160253 0)
(0.00170975 0.000172532 0)
(0.00167068 0.000182813 0)
(0.00162955 0.000191053 0)
(0.00158682 0.000197258 0)
(0.00154292 0.000201479 0)
(0.0014983 0.000203808 0)
(0.00145335 0.000204365 0)
(0.00140844 0.000203298 0)
(0.00136391 0.000200773 0)
(0.00132006 0.000196968 0)
(0.00127714 0.000192069 0)
(0.00123537 0.000186265 0)
(0.00119495 0.000179746 0)
(0.001156 0.000172698 0)
(0.00111863 0.000165306 0)
(0.00108291 0.000157747 0)
(0.00104889 0.000150194 0)
(0.00101657 0.000142812 0)
(0.000985933 0.000135761 0)
(0.000956943 0.000129193 0)
(0.000929541 0.000123251 0)
(0.000903656 0.000118062 0)
(0.000879206 0.000113737 0)
(0.000856094 0.000110355 0)
(0.000834238 0.00010795 0)
(0.000813674 0.000106493 0)
(0.000794183 0.000105868 0)
(0.000773798 0.000105846 0)
(0.000753819 0.000106039 0)
(0.00100508 6.803e-05 0)
(0.00102573 0.000167879 0)
(0.00106051 0.000229565 0)
(0.0010981 0.000257396 0)
(0.00113252 0.000258713 0)
(0.00116193 0.000241121 0)
(0.00118634 0.000211236 0)
(0.00120676 0.000174245 0)
(0.00122461 0.000133918 0)
(0.00124132 9.28293e-05 0)
(0.00125815 5.26424e-05 0)
(0.0012761 1.43724e-05 0)
(0.0012959 -2.14024e-05 0)
(0.00131805 -5.4382e-05 0)
(0.00134284 -8.44331e-05 0)
(0.00137038 -0.000111513 0)
(0.00140066 -0.00013562 0)
(0.00143358 -0.000156765 0)
(0.00146893 -0.000174952 0)
(0.00150643 -0.000190171 0)
(0.00154574 -0.000202397 0)
(0.00158647 -0.000211592 0)
(0.0016282 -0.000217713 0)
(0.00167045 -0.000220716 0)
(0.0017127 -0.000220569 0)
(0.00175443 -0.000217262 0)
(0.00179508 -0.000210818 0)
(0.0018341 -0.000201304 0)
(0.00187093 -0.000188838 0)
(0.00190504 -0.000173597 0)
(0.00193594 -0.000155815 0)
(0.00196317 -0.000135781 0)
(0.00198638 -0.000113826 0)
(0.00200527 -9.03007e-05 0)
(0.00201961 -6.5563e-05 0)
(0.00202927 -3.99557e-05 0)
(0.00203415 -1.38002e-05 0)
(0.0020342 1.26016e-05 0)
(0.00202941 3.8958e-05 0)
(0.00201979 6.4975e-05 0)
(0.0020054 9.03459e-05 0)
(0.00198634 0.000114749 0)
(0.00196279 0.000137855 0)
(0.00193499 0.000159345 0)
(0.00190327 0.000178926 0)
(0.001868 0.000196354 0)
(0.00182963 0.000211443 0)
(0.00178862 0.000224075 0)
(0.00174545 0.000234196 0)
(0.00170061 0.000241817 0)
(0.00165457 0.000247004 0)
(0.00160778 0.00024987 0)
(0.00156066 0.000250566 0)
(0.00151361 0.000249276 0)
(0.00146698 0.000246202 0)
(0.00142107 0.000241561 0)
(0.00137616 0.000235582 0)
(0.00133248 0.000228492 0)
(0.00129021 0.000220522 0)
(0.0012495 0.000211895 0)
(0.00121047 0.000202832 0)
(0.00117319 0.000193543 0)
(0.00113772 0.000184231 0)
(0.00110405 0.000175091 0)
(0.00107219 0.000166305 0)
(0.00104211 0.000158046 0)
(0.00101375 0.000150473 0)
(0.000987049 0.000143727 0)
(0.000961934 0.000137926 0)
(0.000938308 0.000133156 0)
(0.000916081 0.000129463 0)
(0.000895273 0.000126831 0)
(0.000875634 0.000125177 0)
(0.000855149 0.000124335 0)
(0.000835084 0.00012407 0)
(0.00100419 5.55287e-05 0)
(0.00102256 0.000139276 0)
(0.00105544 0.000193443 0)
(0.00109357 0.000220098 0)
(0.00113144 0.000223904 0)
(0.00116668 0.000210276 0)
(0.00119846 0.00018436 0)
(0.00122699 0.000150528 0)
(0.00125304 0.000112214 0)
(0.00127759 7.19602e-05 0)
(0.00130166 3.15604e-05 0)
(0.00132613 -7.77045e-06 0)
(0.0013517 -4.52398e-05 0)
(0.0013789 -8.03467e-05 0)
(0.0014081 -0.000112782 0)
(0.00143951 -0.000142354 0)
(0.00147319 -0.000168938 0)
(0.00150912 -0.000192442 0)
(0.00154717 -0.000212783 0)
(0.00158711 -0.00022988 0)
(0.00162867 -0.000243643 0)
(0.0016715 -0.00025398 0)
(0.00171519 -0.0002608 0)
(0.00175929 -0.000264016 0)
(0.00180331 -0.000263564 0)
(0.0018467 -0.000259407 0)
(0.00188892 -0.000251552 0)
(0.0019294 -0.000240061 0)
(0.00196755 -0.000225064 0)
(0.00200283 -0.000206766 0)
(0.00203473 -0.00018545 0)
(0.00206277 -0.00016147 0)
(0.0020866 -0.000135233 0)
(0.00210592 -0.000107178 0)
(0.00212054 -7.77381e-05 0)
(0.00213036 -4.7321e-05 0)
(0.0021353 -1.62945e-05 0)
(0.00213535 1.50073e-05 0)
(0.00213048 4.62669e-05 0)
(0.00212069 7.71593e-05 0)
(0.00210602 0.000107335 0)
(0.00208654 0.00013641 0)
(0.0020624 0.000163984 0)
(0.00203384 0.000189656 0)
(0.00200119 0.000213061 0)
(0.00196484 0.000233891 0)
(0.00192526 0.000251918 0)
(0.00188295 0.000266998 0)
(0.00183842 0.000279068 0)
(0.00179218 0.000288146 0)
(0.00174471 0.000294315 0)
(0.00169651 0.000297716 0)
(0.001648 0.000298532 0)
(0.00159959 0.000296984 0)
(0.00155163 0.000293315 0)
(0.00150445 0.000287785 0)
(0.00145833 0.000280662 0)
(0.00141349 0.000272218 0)
(0.00137013 0.000262721 0)
(0.0013284 0.000252434 0)
(0.00128842 0.000241614 0)
(0.00125027 0.000230504 0)
(0.001214 0.000219337 0)
(0.00117963 0.000208335 0)
(0.00114716 0.000197704 0)
(0.00111656 0.000187637 0)
(0.00108778 0.00017831 0)
(0.00106078 0.000169878 0)
(0.00103547 0.000162472 0)
(0.00101175 0.000156192 0)
(0.000989534 0.000151098 0)
(0.000968815 0.000147203 0)
(0.000949324 0.000144461 0)
(0.000929035 0.000142774 0)
(0.000909173 0.000142048 0)
(0.0010036 4.45346e-05 0)
(0.00102018 0.000112918 0)
(0.00105113 0.000158361 0)
(0.00108879 0.000181648 0)
(0.00112825 0.000185653 0)
(0.001167 0.000174135 0)
(0.00120377 0.000150978 0)
(0.00123818 0.000119726 0)
(0.0012705 8.33577e-05 0)
(0.00130131 4.42306e-05 0)
(0.00133133 4.12797e-06 0)
(0.00136128 -3.56471e-05 0)
(0.00139178 -7.41668e-05 0)
(0.00142335 -0.000110781 0)
(0.00145637 -0.000145033 0)
(0.00149108 -0.000176599 0)
(0.00152763 -0.000205234 0)
(0.00156605 -0.00023074 0)
(0.00160625 -0.000252942 0)
(0.00164809 -0.000271679 0)
(0.00169133 -0.000286789 0)
(0.00173566 -0.000298115 0)
(0.00178072 -0.000305509 0)
(0.00182607 -0.000308835 0)
(0.00187124 -0.000307983 0)
(0.0019157 -0.000302884 0)
(0.0019589 -0.000293518 0)
(0.00200026 -0.000279939 0)
(0.00203919 -0.00026228 0)
(0.00207512 -0.000240775 0)
(0.00210751 -0.000215757 0)
(0.0021359 -0.000187656 0)
(0.0021599 -0.000156974 0)
(0.00217927 -0.000124248 0)
(0.00219386 -9.00044e-05 0)
(0.0022036 -5.47172e-05 0)
(0.00220849 -1.87913e-05 0)
(0.00220853 1.74258e-05 0)
(0.00220371 5.36124e-05 0)
(0.002194 8.94319e-05 0)
(0.00217938 0.0001245 0)
(0.00215988 0.000158373 0)
(0.00213561 0.000190559 0)
(0.00210679 0.000220564 0)
(0.00207374 0.000247931 0)
(0.00203689 0.000272281 0)
(0.00199673 0.000293335 0)
(0.00195377 0.000310923 0)
(0.00190856 0.000324978 0)
(0.00186163 0.000335526 0)
(0.00181349 0.000342672 0)
(0.00176464 0.000346586 0)
(0.0017155 0.000347492 0)
(0.0016665 0.000345646 0)
(0.00161801 0.000341337 0)
(0.00157033 0.000334866 0)
(0.00152375 0.000326547 0)
(0.00147851 0.000316691 0)
(0.0014348 0.000305609 0)
(0.00139277 0.000293602 0)
(0.00135253 0.000280961 0)
(0.00131418 0.000267963 0)
(0.00127776 0.000254872 0)
(0.0012433 0.000241933 0)
(0.0012108 0.000229378 0)
(0.00118023 0.00021742 0)
(0.00115156 0.000206252 0)
(0.00112473 0.000196045 0)
(0.00109966 0.000186946 0)
(0.00107625 0.000179074 0)
(0.0010544 0.00017251 0)
(0.00103408 0.000167301 0)
(0.00101502 0.00016344 0)
(0.00099522 0.000160899 0)
(0.000975844 0.000159716 0)
(0.00100316 3.46703e-05 0)
(0.00101829 8.85102e-05 0)
(0.00104736 0.000124678 0)
(0.00108393 0.000143189 0)
(0.0011237 0.000145709 0)
(0.00116424 0.000134769 0)
(0.00120403 0.000113218 0)
(0.00124238 8.3839e-05 0)
(0.00127914 4.912e-05 0)
(0.00131458 1.11499e-05 0)
(0.00134915 -2.8394e-05 0)
(0.00138338 -6.8208e-05 0)
(0.00141779 -0.0001073 0)
(0.00145282 -0.000144921 0)
(0.00148886 -0.000180507 0)
(0.00152616 -0.000213617 0)
(0.00156489 -0.000243901 0)
(0.00160513 -0.000271061 0)
(0.00164685 -0.000294831 0)
(0.00168993 -0.000314962 0)
(0.0017342 -0.000331217 0)
(0.00177937 -0.000343371 0)
(0.00182512 -0.000351208 0)
(0.00187105 -0.000354537 0)
(0.0019167 -0.000353197 0)
(0.00196157 -0.000347074 0)
(0.0020051 -0.000336117 0)
(0.00204673 -0.000320359 0)
(0.00208584 -0.000299933 0)
(0.00212185 -0.000275095 0)
(0.0021542 -0.000246234 0)
(0.0021824 -0.000213866 0)
(0.00220609 -0.00017861 0)
(0.00222505 -0.00014113 0)
(0.00223921 -0.000102062 0)
(0.00224859 -6.19513e-05 0)
(0.00225328 -2.12245e-05 0)
(0.00225331 1.97884e-05 0)
(0.00224869 6.07973e-05 0)
(0.00223934 0.000101485 0)
(0.00222518 0.000141449 0)
(0.00220613 0.000180179 0)
(0.00218225 0.000217079 0)
(0.00215372 0.00025153 0)
(0.00212086 0.000282963 0)
(0.00208413 0.000310913 0)
(0.00204402 0.000335047 0)
(0.00200111 0.00035517 0)
(0.00195594 0.000371212 0)
(0.00190908 0.000383216 0)
(0.00186103 0.000391314 0)
(0.0018123 0.00039571 0)
(0.00176333 0.000396666 0)
(0.00171454 0.000394482 0)
(0.00166629 0.00038949 0)
(0.00161889 0.000382037 0)
(0.00157263 0.000372479 0)
(0.00152773 0.000361172 0)
(0.00148439 0.000348465 0)
(0.00144276 0.000334699 0)
(0.00140295 0.000320199 0)
(0.00136505 0.000305274 0)
(0.00132911 0.000290216 0)
(0.00129515 0.000275298 0)
(0.00126318 0.000260773 0)
(0.00123317 0.000246875 0)
(0.00120509 0.000233816 0)
(0.00117888 0.000221784 0)
(0.00115446 0.000210946 0)
(0.00113173 0.000201438 0)
(0.00111058 0.000193373 0)
(0.00109097 0.000186828 0)
(0.00107262 0.000181843 0)
(0.00105359 0.000178453 0)
(0.00103498 0.00017682 0)
(0.00100283 2.57111e-05 0)
(0.00101671 6.58522e-05 0)
(0.00104393 9.26052e-05 0)
(0.001079 0.000105493 0)
(0.00111817 0.000105352 0)
(0.00115916 9.38003e-05 0)
(0.00120042 7.28586e-05 0)
(0.00124102 4.46473e-05 0)
(0.00128058 1.11788e-05 0)
(0.00131909 -2.57609e-05 0)
(0.00135678 -6.46585e-05 0)
(0.00139402 -0.000104272 0)
(0.00143119 -0.0001436 0)
(0.00146867 -0.000181845 0)
(0.0015068 -0.000218364 0)
(0.00154583 -0.000252631 0)
(0.00158594 -0.000284203 0)
(0.00162723 -0.000312692 0)
(0.0016697 -0.000337743 0)
(0.00171328 -0.000359027 0)
(0.00175782 -0.000376226 0)
(0.00180308 -0.000389041 0)
(0.00184878 -0.00039719 0)
(0.00189453 -0.000400418 0)
(0.00193992 -0.000398507 0)
(0.00198445 -0.000391293 0)
(0.0020276 -0.000378684 0)
(0.00206878 -0.000360681 0)
(0.0021074 -0.000337409 0)
(0.00214285 -0.000309139 0)
(0.00217453 -0.000276315 0)
(0.00220195 -0.000239558 0)
(0.00222475 -0.00019963 0)
(0.00224276 -0.000157364 0)
(0.00225601 -0.000113541 0)
(0.00226468 -6.87817e-05 0)
(0.00226896 -2.35095e-05 0)
(0.00226899 2.20111e-05 0)
(0.00226476 6.75783e-05 0)
(0.00225613 0.000112943 0)
(0.0022429 0.000157711 0)
(0.00222486 0.000201301 0)
(0.00220197 0.000242977 0)
(0.00217435 0.000281958 0)
(0.00214233 0.000317531 0)
(0.00210639 0.000349128 0)
(0.00206706 0.000376359 0)
(0.00202494 0.000399008 0)
(0.0019806 0.000417014 0)
(0.0019346 0.00043044 0)
(0.00188747 0.00043945 0)
(0.00183969 0.000444288 0)
(0.00179171 0.000445255 0)
(0.00174393 0.000442697 0)
(0.00169672 0.00043699 0)
(0.00165039 0.000428526 0)
(0.00160521 0.000417706 0)
(0.0015614 0.000404926 0)
(0.00151915 0.000390579 0)
(0.00147862 0.000375039 0)
(0.00143991 0.000358668 0)
(0.00140309 0.000341806 0)
(0.00136823 0.000324772 0)
(0.00133535 0.000307864 0)
(0.00130444 0.000291359 0)
(0.00127549 0.000275509 0)
(0.00124847 0.000260546 0)
(0.0012233 0.000246677 0)
(0.00119993 0.000234088 0)
(0.00117823 0.00022294 0)
(0.0011581 0.000213372 0)
(0.00113949 0.0002055 0)
(0.00112211 0.000199405 0)
(0.00110412 0.000195183 0)
(0.00108654 0.000193112 0)
(0.00100255 1.75244e-05 0)
(0.00101531 4.48255e-05 0)
(0.00104069 6.22956e-05 0)
(0.00107395 6.91194e-05 0)
(0.00111184 6.5544e-05 0)
(0.00115227 5.25081e-05 0)
(0.00119371 3.13744e-05 0)
(0.00123514 3.70246e-06 0)
(0.00127602 -2.89299e-05 0)
(0.00131616 -6.50424e-05 0)
(0.00135561 -0.000103314 0)
(0.00139457 -0.000142604 0)
(0.00143332 -0.000181945 0)
(0.00147216 -0.000220525 0)
(0.00151136 -0.000257658 0)
(0.00155117 -0.000292753 0)
(0.00159176 -0.000325295 0)
(0.00163322 -0.000354815 0)
(0.0016756 -0.00038088 0)
(0.00171884 -0.00040308 0)
(0.00176281 -0.000421022 0)
(0.00180733 -0.000434332 0)
(0.00185213 -0.000442658 0)
(0.00189685 -0.00044568 0)
(0.00194112 -0.00044312 0)
(0.00198447 -0.000434759 0)
(0.00202639 -0.000420457 0)
(0.00206633 -0.000400175 0)
(0.00210368 -0.000374009 0)
(0.00213782 -0.000342236 0)
(0.00216813 -0.000305351 0)
(0.00219407 -0.000264093 0)
(0.00221527 -0.000219416 0)
(0.00223164 -0.00017238 0)
(0.00224337 -0.00012397 0)
(0.00225086 -7.48962e-05 0)
(0.00225449 -2.55354e-05 0)
(0.00225451 2.39876e-05 0)
(0.00225092 7.36465e-05 0)
(0.00224347 0.000123335 0)
(0.00223178 0.000172711 0)
(0.00221545 0.00022111 0)
(0.00219424 0.000267601 0)
(0.00216825 0.000311175 0)
(0.00213781 0.000350935 0)
(0.00210343 0.000386192 0)
(0.00206569 0.0004165 0)
(0.0020252 0.000441636 0)
(0.00198256 0.000461556 0)
(0.00193831 0.000476355 0)
(0.00189297 0.000486234 0)
(0.00184702 0.000491475 0)
(0.00180089 0.000492424 0)
(0.00175498 0.00048947 0)
(0.00170964 0.000483033 0)
(0.00166517 0.000473551 0)
(0.00162184 0.000461468 0)
(0.00157987 0.000447222 0)
(0.00153944 0.000431244 0)
(0.00150068 0.000413948 0)
(0.00146371 0.000395725 0)
(0.00142861 0.000376948 0)
(0.00139541 0.000357961 0)
(0.00136415 0.000339089 0)
(0.00133482 0.000320627 0)
(0.00130741 0.00030285 0)
(0.00128188 0.000286007 0)
(0.00125817 0.000270326 0)
(0.0012362 0.000256012 0)
(0.00121588 0.000243251 0)
(0.00119707 0.000232211 0)
(0.00117973 0.000223043 0)
(0.00116358 0.00021587 0)
(0.0011469 0.000210845 0)
(0.00113062 0.000208354 0)
(0.00100231 1.00347e-05 0)
(0.00101401 2.53729e-05 0)
(0.00103753 3.38833e-05 0)
(0.00106874 3.44993e-05 0)
(0.0011048 2.70371e-05 0)
(0.00114385 1.19202e-05 0)
(0.00118442 -1.00079e-05 0)
(0.00122549 -3.76552e-05 0)
(0.0012664 -6.98275e-05 0)
(0.00130686 -0.000105334 0)
(0.00134676 -0.000143055 0)
(0.00138621 -0.000181972 0)
(0.00142536 -0.000221181 0)
(0.00146443 -0.000259883 0)
(0.00150366 -0.000297373 0)
(0.00154324 -0.00033302 0)
(0.00158334 -0.000366251 0)
(0.00162404 -0.000396531 0)