/*--------------------------------*- C++ -*----------------------------------*\
  =========                 |
  \\      /  F ield         | OpenFOAM: The Open Source CFD Toolbox
   \\    /   O peration     | Website:  https://openfoam.org
    \\  /    A nd           | Version:  7
     \\/     M anipulation  |
\*---------------------------------------------------------------------------*/
FoamFile
{
    version     2.0;
    format      ascii;
    class       volScalarField;
    location    "15";
    object      C;
}
// * * * * * * * * * * * * * * * * * * * * * * * * * * * * * * * * * * * * * //

dimensions      [0 0 0 0 0 0 0];

internalField   nonuniform List<scalar> 
5625
(
0.01
0.01
0.01
0.01
0.01
0.01
0.01
0.01
0.01
0.01
0.01
0.01
0.01
0.01
0.01
0.01
0.01
0.01
0.01
0.01
0.01
0.01
0.01
0.01
0.01
0.01
0.01
0.01
0.01
0.01
0.01
0.01
0.01
0.01
0.01
0.00999999
0.00999999
0.00999999
0.00999999
0.00999999
0.00999998
0.00999998
0.00999997
0.00999997
0.00999996
0.00999996
0.00999995
0.00999994
0.00999993
0.00999992
0.00999991
0.00999989
0.00999988
0.00999986
0.00999984
0.00999982
0.0099998
0.00999978
0.00999975
0.00999973
0.0099997
0.00999966
0.00999963
0.00999959
0.00999955
0.00999951
0.00999946
0.00999942
0.00999937
0.00999932
0.00999927
0.00999922
0.00999918
0.00999915
0.00999913
0.01
0.01
0.01
0.01
0.01
0.01
0.01
0.01
0.01
0.01
0.01
0.01
0.01
0.01
0.01
0.01
0.01
0.01
0.01
0.01
0.01
0.01
0.01
0.01
0.01
0.01
0.01
0.01
0.01
0.01
0.01
0.01
0.01
0.01
0.01
0.00999999
0.00999999
0.00999999
0.00999999
0.00999999
0.00999998
0.00999998
0.00999997
0.00999997
0.00999996
0.00999996
0.00999995
0.00999994
0.00999993
0.00999992
0.00999991
0.00999989
0.00999988
0.00999986
0.00999984
0.00999982
0.0099998
0.00999978
0.00999975
0.00999972
0.00999969
0.00999966
0.00999962
0.00999958
0.00999954
0.0099995
0.00999946
0.00999941
0.00999936
0.00999931
0.00999926
0.00999921
0.00999916
0.00999913
0.00999911
0.01
0.01
0.01
0.01
0.01
0.01
0.01
0.01
0.01
0.01
0.01
0.01
0.01
0.01
0.01
0.01
0.01
0.01
0.01
0.01
0.01
0.01
0.01
0.01
0.01
0.01
0.01
0.01
0.01
0.01
0.01
0.01
0.01
0.01
0.00999999
0.00999999
0.00999999
0.00999999
0.00999998
0.00999998
0.00999998
0.00999997
0.00999997
0.00999996
0.00999995
0.00999995
0.00999994
0.00999993
0.00999992
0.00999991
0.00999989
0.00999988
0.00999986
0.00999984
0.00999982
0.0099998
0.00999978
0.00999975
0.00999973
0.0099997
0.00999967
0.00999963
0.0099996
0.00999956
0.00999952
0.00999947
0.00999943
0.00999938
0.00999933
0.00999927
0.00999922
0.00999917
0.00999912
0.00999908
0.00999905
0.01
0.01
0.01
0.01
0.01
0.01
0.01
0.01
0.01
0.01
0.01
0.01
0.01
0.01
0.01
0.01
0.01
0.01
0.01
0.01
0.01
0.01
0.01
0.01
0.01
0.01
0.01
0.01
0.01
0.01
0.01
0.01
0.00999999
0.00999999
0.00999999
0.00999999
0.00999998
0.00999998
0.00999998
0.00999997
0.00999997
0.00999996
0.00999995
0.00999994
0.00999994
0.00999993
0.00999991
0.0099999
0.00999989
0.00999988
0.00999986
0.00999984
0.00999982
0.0099998
0.00999978
0.00999976
0.00999973
0.00999971
0.00999968
0.00999964
0.00999961
0.00999957
0.00999954
0.00999949
0.00999945
0.0099994
0.00999936
0.00999931
0.00999925
0.0099992
0.00999914
0.00999908
0.00999903
0.00999898
0.00999895
0.01
0.01
0.01
0.01
0.01
0.01
0.01
0.01
0.01
0.01
0.01
0.01
0.01
0.01
0.01
0.01
0.01
0.01
0.01
0.01
0.01
0.01
0.01
0.01
0.01
0.01
0.01
0.01
0.01
0.01
0.01
0.00999999
0.00999999
0.00999999
0.00999998
0.00999998
0.00999997
0.00999997
0.00999996
0.00999995
0.00999994
0.00999993
0.00999992
0.00999991
0.0099999
0.00999988
0.00999987
0.00999985
0.00999983
0.00999981
0.00999979
0.00999977
0.00999975
0.00999972
0.0099997
0.00999967
0.00999964
0.00999961
0.00999958
0.00999954
0.0099995
0.00999946
0.00999942
0.00999937
0.00999933
0.00999928
0.00999922
0.00999917
0.00999911
0.00999905
0.00999899
0.00999893
0.00999887
0.00999882
0.00999879
0.01
0.01
0.01
0.01
0.01
0.01
0.01
0.01
0.01
0.01
0.01
0.01
0.01
0.01
0.01
0.01
0.01
0.01
0.01
0.01
0.01
0.01
0.01
0.01
0.01
0.01
0.01
0.01
0.01
0.00999999
0.00999999
0.00999998
0.00999998
0.00999997
0.00999996
0.00999995
0.00999994
0.00999993
0.00999992
0.00999991
0.00999989
0.00999987
0.00999985
0.00999984
0.00999981
0.00999979
0.00999977
0.00999975
0.00999972
0.00999969
0.00999967
0.00999964
0.00999961
0.00999958
0.00999954
0.00999951
0.00999947
0.00999944
0.0099994
0.00999936
0.00999931
0.00999927
0.00999922
0.00999917
0.00999912
0.00999906
0.009999
0.00999894
0.00999888
0.00999882
0.00999875
0.00999869
0.00999862
0.00999856
0.00999852
0.01
0.01
0.01
0.01
0.01
0.01
0.01
0.01
0.01
0.01
0.01
0.01
0.01
0.01
0.01
0.01
0.01
0.01
0.01
0.01
0.01
0.01
0.01
0.01
0.01
0.01
0.01
0.00999999
0.00999999
0.00999998
0.00999998
0.00999997
0.00999995
0.00999994
0.00999992
0.0099999
0.00999988
0.00999986
0.00999984
0.00999981
0.00999978
0.00999975
0.00999972
0.00999969
0.00999965
0.00999962
0.00999958
0.00999955
0.00999951
0.00999947
0.00999943
0.00999939
0.00999936
0.00999931
0.00999927
0.00999923
0.00999919
0.00999914
0.0099991
0.00999905
0.009999
0.00999895
0.00999889
0.00999883
0.00999878
0.00999871
0.00999865
0.00999858
0.00999851
0.00999844
0.00999837
0.0099983
0.00999823
0.00999817
0.00999812
0.01
0.01
0.01
0.01
0.01
0.01
0.01
0.01
0.01
0.01
0.01
0.01
0.01
0.01
0.01
0.01
0.01
0.01
0.01
0.01
0.01
0.01
0.01
0.01
0.01
0.00999999
0.00999999
0.00999998
0.00999997
0.00999996
0.00999994
0.00999992
0.00999989
0.00999986
0.00999983
0.00999979
0.00999974
0.0099997
0.00999965
0.0099996
0.00999955
0.0099995
0.00999944
0.00999939
0.00999933
0.00999927
0.00999922
0.00999916
0.00999911
0.00999906
0.00999901
0.00999895
0.0099989
0.00999885
0.0099988
0.00999875
0.0099987
0.00999865
0.0099986
0.00999854
0.00999848
0.00999843
0.00999837
0.0099983
0.00999824
0.00999817
0.0099981
0.00999802
0.00999795
0.00999787
0.00999779
0.00999772
0.00999764
0.00999757
0.00999752
0.01
0.01
0.01
0.01
0.01
0.01
0.01
0.01
0.01
0.01
0.01
0.01
0.01
0.01
0.01
0.01
0.01
0.01
0.01
0.01
0.01
0.01
0.01
0.01
0.00999999
0.00999999
0.00999998
0.00999996
0.00999994
0.00999991
0.00999987
0.00999982
0.00999976
0.00999969
0.00999961
0.00999952
0.00999944
0.00999935
0.00999926
0.00999916
0.00999906
0.00999897
0.00999887
0.00999878
0.00999869
0.0099986
0.00999851
0.00999844
0.00999836
0.00999829
0.00999822
0.00999816
0.0099981
0.00999804
0.00999799
0.00999793
0.00999788
0.00999782
0.00999777
0.00999771
0.00999765
0.00999759
0.00999753
0.00999746
0.00999739
0.00999732
0.00999725
0.00999717
0.00999709
0.00999701
0.00999692
0.00999684
0.00999676
0.00999669
0.00999663
0.01
0.01
0.01
0.01
0.01
0.01
0.01
0.01
0.01
0.01
0.01
0.01
0.01
0.01
0.01
0.01
0.01
0.01
0.01
0.01
0.01
0.01
0.01
0.00999999
0.00999998
0.00999997
0.00999994
0.00999991
0.00999986
0.00999979
0.00999969
0.00999958
0.00999944
0.00999928
0.00999911
0.00999893
0.00999876
0.00999858
0.0099984
0.00999822
0.00999805
0.00999788
0.00999771
0.00999756
0.00999741
0.00999728
0.00999716
0.00999706
0.00999696
0.00999688
0.0099968
0.00999674
0.00999668
0.00999663
0.00999658
0.00999654
0.0099965
0.00999646
0.00999641
0.00999637
0.00999632
0.00999627
0.00999622
0.00999616
0.00999609
0.00999603
0.00999595
0.00999588
0.0099958
0.00999572
0.00999564
0.00999555
0.00999547
0.00999539
0.00999534
0.01
0.01
0.01
0.01
0.01
0.01
0.01
0.01
0.01
0.01
0.01
0.01
0.01
0.01
0.01
0.01
0.01
0.01
0.01
0.01
0.01
0.00999999
0.00999999
0.00999998
0.00999996
0.00999992
0.00999987
0.00999978
0.00999966
0.0099995
0.00999929
0.00999903
0.00999872
0.00999838
0.00999801
0.00999764
0.00999728
0.00999694
0.0099966
0.00999627
0.00999595
0.00999565
0.00999538
0.00999514
0.00999492
0.00999474
0.00999459
0.00999447
0.00999437
0.0099943
0.00999425
0.00999422
0.0099942
0.00999419
0.00999419
0.00999419
0.0099942
0.00999421
0.00999421
0.00999421
0.0099942
0.00999419
0.00999416
0.00999414
0.0099941
0.00999405
0.009994
0.00999394
0.00999388
0.00999381
0.00999373
0.00999366
0.00999359
0.00999352
0.00999347
0.01
0.01
0.01
0.01
0.01
0.01
0.01
0.01
0.01
0.01
0.01
0.01
0.01
0.01
0.01
0.01
0.01
0.01
0.01
0.01
0.00999999
0.00999999
0.00999997
0.00999994
0.0099999
0.00999981
0.00999969
0.00999949
0.00999922
0.00999884
0.00999837
0.00999779
0.00999713
0.00999639
0.00999563
0.00999487
0.00999416
0.0099935
0.00999286
0.00999226
0.0099917
0.00999121
0.00999078
0.00999042
0.00999014
0.00998992
0.00998978
0.00998969
0.00998966
0.00998967
0.00998972
0.00998981
0.00998991
0.00999003
0.00999016
0.00999029
0.00999042
0.00999055
0.00999066
0.00999077
0.00999086
0.00999093
0.00999099
0.00999104
0.00999106
0.00999108
0.00999108
0.00999106
0.00999103
0.009991
0.00999095
0.00999091
0.00999086
0.00999081
0.00999078
0.01
0.01
0.01
0.01
0.01
0.01
0.01
0.01
0.01
0.01
0.01
0.01
0.01
0.01
0.01
0.01
0.01
0.01
0.01
0.00999999
0.00999998
0.00999997
0.00999993
0.00999987
0.00999976
0.00999957
0.00999928
0.00999884
0.00999822
0.00999739
0.00999635
0.0099951
0.00999368
0.00999215
0.00999059
0.00998907
0.00998768
0.00998644
0.00998528
0.00998423
0.0099833
0.00998252
0.0099819
0.00998144
0.00998113
0.00998098
0.00998095
0.00998105
0.00998124
0.00998151
0.00998185
0.00998223
0.00998264
0.00998306
0.00998349
0.00998391
0.00998431
0.00998469
0.00998504
0.00998537
0.00998566
0.00998592
0.00998615
0.00998634
0.0099865
0.00998663
0.00998673
0.00998681
0.00998687
0.0099869
0.00998692
0.00998693
0.00998694
0.00998694
0.00998694
0.01
0.01
0.01
0.01
0.01
0.01
0.01
0.01
0.01
0.01
0.01
0.01
0.01
0.01
0.01
0.01
0.01
0.01
0.00999999
0.00999998
0.00999996
0.00999992
0.00999985
0.0099997
0.00999945
0.00999903
0.00999837
0.00999741
0.00999606
0.00999427
0.00999205
0.00998942
0.00998649
0.00998338
0.00998026
0.00997731
0.00997467
0.00997241
0.00997037
0.00996859
0.00996713
0.00996599
0.0099652
0.00996475
0.00996461
0.00996476
0.00996516
0.00996577
0.00996655
0.00996746
0.00996845
0.00996949
0.00997055
0.00997161
0.00997265
0.00997364
0.00997459
0.00997547
0.00997629
0.00997703
0.00997771
0.00997831
0.00997885
0.00997932
0.00997973
0.00998008
0.00998037
0.00998062
0.00998083
0.009981
0.00998114
0.00998126
0.00998136
0.00998145
0.00998152
0.01
0.01
0.01
0.01
0.01
0.01
0.01
0.01
0.01
0.01
0.01
0.01
0.01
0.01
0.01
0.01
0.01
0.00999999
0.00999998
0.00999996
0.00999992
0.00999983
0.00999966
0.00999933
0.00999878
0.00999786
0.00999645
0.00999438
0.00999152
0.00998779
0.00998319
0.00997784
0.00997195
0.00996582
0.0099598
0.00995424
0.00994942
0.00994544
0.00994198
0.00993913
0.00993696
0.0099355
0.00993474
0.00993465
0.00993517
0.00993621
0.0099377
0.00993953
0.00994162
0.00994387
0.00994622
0.0099486
0.00995096
0.00995325
0.00995545
0.00995752
0.00995946
0.00996126
0.0099629
0.0099644
0.00996575
0.00996696
0.00996804
0.00996899
0.00996982
0.00997055
0.00997117
0.00997172
0.00997218
0.00997258
0.00997293
0.00997323
0.0099735
0.00997374
0.00997393
0.01
0.01
0.01
0.01
0.01
0.01
0.01
0.01
0.01
0.01
0.01
0.01
0.01
0.01
0.01
0.01
0.00999999
0.00999999
0.00999997
0.00999992
0.00999982
0.00999963
0.00999925
0.00999856
0.00999738
0.00999545
0.00999249
0.0099882
0.00998235
0.00997479
0.00996561
0.00995507
0.00994366
0.00993202
0.00992083
0.00991072
0.00990221
0.00989544
0.00988983
0.00988553
0.00988263
0.00988114
0.00988102
0.00988215
0.00988438
0.00988753
0.0098914
0.0098958
0.00990053
0.00990545
0.00991041
0.0099153
0.00992004
0.00992457
0.00992883
0.00993281
0.00993648
0.00993984
0.00994289
0.00994565
0.00994813
0.00995035
0.00995231
0.00995405
0.00995558
0.00995691
0.00995808
0.00995909
0.00995998
0.00996074
0.00996142
0.00996201
0.00996255
0.00996303
0.00996341
0.01
0.01
0.01
0.01
0.01
0.01
0.01
0.01
0.01
0.01
0.01
0.01
0.01
0.01
0.01
0.01
0.00999999
0.00999997
0.00999993
0.00999983
0.00999963
0.00999922
0.00999843
0.009997
0.00999457
0.00999064
0.00998466
0.00997609
0.00996452
0.00994978
0.00993209
0.0099121
0.00989084
0.00986956
0.00984953
0.00983188
0.00981744
0.0098064
0.00979774
0.0097917
0.00978838
0.00978776
0.00978966
0.00979381
0.00979985
0.00980739
0.00981601
0.00982535
0.00983506
0.00984486
0.00985451
0.00986384
0.00987271
0.00988105
0.0098888
0.00989594
0.00990245
0.00990837
0.0099137
0.00991848
0.00992275
0.00992655
0.00992991
0.00993287
0.00993547
0.00993775
0.00993975
0.00994149
0.00994301
0.00994434
0.00994552
0.00994656
0.0099475
0.00994835
0.009949
0.01
0.01
0.01
0.01
0.01
0.01
0.01
0.01
0.01
0.01
0.01
0.01
0.01
0.01
0.01
0.00999999
0.00999997
0.00999994
0.00999985
0.00999965
0.00999924
0.0099984
0.00999681
0.00999396
0.00998912
0.00998139
0.00996976
0.00995328
0.00993127
0.00990359
0.00987084
0.0098344
0.00979633
0.00975898
0.00972464
0.00969512
0.00967164
0.00965438
0.00964173
0.00963402
0.00963136
0.00963359
0.00964028
0.00965081
0.00966441
0.0096803
0.00969771
0.00971594
0.0097344
0.0097526
0.00977019
0.0097869
0.00980256
0.00981707
0.00983039
0.00984252
0.00985349
0.00986336
0.00987219
0.00988006
0.00988704
0.00989322
0.00989866
0.00990345
0.00990766
0.00991133
0.00991455
0.00991736
0.00991981
0.00992197
0.00992388
0.00992557
0.0099271
0.00992847
0.00992954
0.01
0.01
0.01
0.01
0.01
0.01
0.01
0.01
0.01
0.01
0.01
0.01
0.01
0.01
0.00999999
0.00999998
0.00999995
0.00999987
0.0099997
0.00999931
0.00999849
0.00999685
0.00999375
0.00998823
0.00997897
0.00996434
0.00994258
0.0099121
0.00987189
0.00982198
0.00976375
0.00969998
0.00963457
0.00957184
0.00951557
0.00946843
0.00943195
0.00940614
0.00938871
0.00938016
0.00938056
0.00938947
0.00940593
0.00942862
0.00945607
0.00948678
0.00951934
0.00955256
0.00958547
0.00961732
0.00964758
0.0096759
0.00970209
0.00972607
0.00974785
0.00976748
0.00978509
0.0098008
0.00981476
0.00982712
0.00983803
0.00984764
0.00985608
0.00986348
0.00986995
0.00987561
0.00988055
0.00988487
0.00988864
0.00989195
0.00989488
0.00989749
0.00989984
0.00990194
0.00990357
0.01
0.01
0.01
0.01
0.01
0.01
0.01
0.01
0.01
0.01
0.01
0.01
0.01
0.00999999
0.00999999
0.00999996
0.0099999
0.00999976
0.00999942
0.00999867
0.0099971
0.00999399
0.00998817
0.00997789
0.00996084
0.00993421
0.00989509
0.00984099
0.00977056
0.00968426
0.00958494
0.00947789
0.00937016
0.00926933
0.00918153
0.00910995
0.00905592
0.00901904
0.0089966
0.00898936
0.00899735
0.00901957
0.00905403
0.00909817
0.00914921
0.00920446
0.00926156
0.00931856
0.00937396
0.00942668
0.00947605
0.00952165
0.00956333
0.00960109
0.00963506
0.00966542
0.00969244
0.00971638
0.00973753
0.00975614
0.0097725
0.00978684
0.00979939
0.00981036
0.00981993
0.00982828
0.00983556
0.00984192
0.00984747
0.00985235
0.00985665
0.00986049
0.00986394
0.00986701
0.0098694
0.01
0.01
0.01
0.01
0.01
0.01
0.01
0.01
0.01
0.01
0.01
0.01
0.01
0.00999999
0.00999997
0.00999993
0.00999982
0.00999954
0.00999891
0.00999753
0.00999464
0.00998895
0.0099784
0.00995997
0.00992974
0.00988317
0.0098157
0.00972371
0.00960554
0.0094626
0.00930025
0.00912781
0.00895751
0.00880244
0.00867233
0.00856954
0.00849367
0.00844355
0.00841699
0.0084153
0.00843849
0.00848456
0.00854964
0.00862894
0.00871754
0.00881095
0.00890537
0.00899781
0.00908616
0.00916902
0.00924558
0.0093155
0.00937874
0.00943552
0.00948617
0.00953112
0.00957086
0.00960586
0.0096366
0.00966355
0.00968713
0.00970772
0.00972568
0.00974134
0.00975498
0.00976685
0.00977719
0.0097862
0.00979407
0.00980097
0.00980706
0.00981248
0.00981735
0.00982168
0.00982505
0.01
0.01
0.01
0.01
0.01
0.01
0.01
0.01
0.01
0.01
0.01
0.01
0.00999999
0.00999998
0.00999995
0.00999987
0.00999967
0.00999918
0.00999805
0.00999557
0.00999044
0.00998041
0.00996196
0.00993013
0.00987861
0.00980041
0.00968891
0.0095392
0.00934956
0.00912296
0.00886849
0.00860167
0.00834248
0.00811329
0.00793124
0.0077932
0.00769356
0.00762987
0.00760246
0.00761339
0.0076631
0.00774799
0.00786116
0.00799413
0.00813875
0.00828781
0.00843555
0.00857772
0.00871153
0.00883535
0.00894845
0.00905069
0.00914236
0.00922401
0.00929636
0.00936018
0.00941628
0.00946546
0.00950847
0.00954602
0.00957876
0.00960727
0.00963207
0.00965364
0.00967239
0.00968869
0.00970287
0.00971521
0.00972598
0.00973542
0.00974374
0.00975114
0.00975778
0.00976367
0.00976825
0.01
0.01
0.01
0.01
0.01
0.01
0.01
0.01
0.01
0.01
0.01
0.01
0.00999999
0.00999997
0.00999992
0.00999978
0.00999942
0.00999857
0.00999661
0.00999233
0.00998353
0.00996645
0.00993538
0.00988242
0.009798
0.009672
0.00949552
0.00926262
0.00897184
0.00862806
0.00824523
0.00784758
0.0074655
0.00713598
0.0068989
0.00673104
0.00661373
0.00654236
0.00652129
0.00655366
0.00664237
0.00678279
0.00696542
0.00717511
0.00739843
0.00762422
0.00784397
0.00805201
0.00824501
0.00842141
0.00858086
0.00872373
0.00885088
0.00896342
0.00906258
0.00914962
0.0092258
0.00929233
0.00935031
0.00940077
0.00944464
0.00948276
0.00951586
0.00954459
0.00956953
0.00959118
0.00960998
0.00962634
0.00964061
0.0096531
0.0096641
0.00967388
0.00968264
0.0096904
0.00969642
0.01
0.01
0.01
0.01
0.01
0.01
0.01
0.01
0.01
0.01
0.01
0.00999999
0.00999998
0.00999995
0.00999986
0.00999962
0.00999903
0.0099976
0.00999432
0.00998719
0.00997259
0.00994454
0.00989404
0.00980916
0.00967609
0.00948127
0.00921394
0.00886787
0.00844218
0.00794292
0.00738853
0.00681547
0.00626584
0.00578736
0.00551863
0.00535391
0.00524611
0.00518674
0.00518037
0.00523403
0.00536084
0.00556276
0.00584272
0.00615942
0.00649029
0.00681827
0.00713134
0.00742252
0.00768863
0.00792891
0.008144
0.00833526
0.00850442
0.00865337
0.00878405
0.00889832
0.00899801
0.00908481
0.00916025
0.00922577
0.00928262
0.00933192
0.00937466
0.00941171
0.00944384
0.0094717
0.00949588
0.0095169
0.00953522
0.00955124
0.00956534
0.00957786
0.00958907
0.00959899
0.00960667
0.01
0.01
0.01
0.01
0.01
0.01
0.01
0.01
0.01
0.01
0.01
0.00999999
0.00999997
0.00999992
0.00999977
0.00999939
0.00999843
0.00999611
0.00999079
0.00997931
0.00995595
0.00991142
0.00983221
0.00970105
0.00949915
0.00920989
0.00882222
0.00833135
0.00773674
0.00704171
0.00626384
0.00545977
0.00469705
0.00390029
0.00376766
0.00369512
0.00365809
0.00364412
0.00364016
0.00367394
0.00378056
0.00399926
0.00446144
0.00493282
0.00541264
0.0058763
0.00630752
0.00669966
0.0070518
0.0073657
0.0076441
0.00789003
0.00810647
0.00829631
0.00846232
0.0086071
0.00873309
0.00884254
0.00893751
0.00901983
0.00909116
0.00915294
0.00920644
0.00925278
0.00929292
0.00932771
0.00935788
0.00938409
0.00940691
0.00942686
0.00944441
0.00945997
0.00947388
0.00948618
0.00949569
0.01
0.01
0.01
0.01
0.01
0.01
0.01
0.01
0.01
0.01
0.01
0.00999999
0.00999996
0.00999987
0.00999965
0.00999905
0.00999754
0.0099939
0.00998559
0.00996771
0.00993157
0.0098633
0.00974327
0.0095476
0.00925229
0.00883928
0.00830057
0.00763586
0.00684372
0.00591438
0.00484069
0.00369878
0.00283162
0.000515707
0.000158824
0.000241336
0.000388699
0.000516835
0.000382305
0.000228094
0.000211656
0.00168302
0.00283789
0.00346312
0.00416185
0.0048117
0.00539116
0.00590144
0.0063499
0.00674424
0.00709106
0.00739582
0.00766309
0.00789689
0.00810086
0.00827838
0.00843257
0.00856631
0.00868217
0.00878248
0.0088693
0.00894443
0.00900944
0.00906571
0.00911443
0.00915662
0.0091932
0.00922495
0.00925257
0.0092767
0.00929791
0.0093167
0.00933348
0.00934831
0.00935975
0.01
0.01
0.01
0.01
0.01
0.01
0.01
0.01
0.01
0.01
0.00999999
0.00999998
0.00999993
0.00999981
0.00999947
0.00999856
0.00999627
0.00999076
0.00997821
0.0099513
0.00989724
0.00979602
0.00962019
0.00933799
0.00892066
0.00835192
0.00763269
0.00677234
0.00576653
0.00457469
0.00309156
0.000987026
0.000182785
0.000377157
0.000112597
0.000147094
0.000105661
6.21776e-05
0.00010684
0.00014056
0.000144214
0.000915319
0.000193718
0.00147245
0.00272326
0.00364726
0.00440868
0.00504985
0.00559991
0.00607763
0.00649523
0.00686102
0.00718113
0.00746062
0.00770401
0.00791545
0.00809878
0.00825754
0.00839489
0.00851367
0.00861638
0.00870518
0.00878198
0.00884842
0.0089059
0.00895566
0.00899878
0.00903618
0.0090687
0.00909708
0.00912201
0.00914408
0.00916377
0.00918115
0.00919454
0.01
0.01
0.01
0.01
0.01
0.01
0.01
0.01
0.01
0.01
0.00999999
0.00999997
0.00999991
0.00999972
0.00999922
0.0099979
0.00999454
0.00998648
0.00996815
0.009929
0.00985083
0.00970569
0.00945642
0.00906227
0.00849074
0.00773189
0.00680442
0.00573666
0.0045209
0.00308103
0.000216829
0.000581988
0.00010411
3.1382e-07
8.09682e-08
3.96306e-08
1.04172e-08
4.23223e-09
1.09997e-08
4.4986e-08
9.02548e-08
1.27033e-06
0.000105657
0.000779875
0.000186092
0.00242543
0.00338698
0.00416052
0.0048116
0.00537303
0.0058628
0.00629144
0.00666605
0.00699245
0.00727597
0.00752164
0.00773414
0.00791776
0.00807635
0.0082133
0.00833159
0.00843378
0.0085221
0.00859846
0.00866449
0.00872163
0.0087711
0.00881399
0.00885127
0.00888378
0.00891231
0.00893756
0.00896008
0.00897995
0.00899524
0.01
0.01
0.01
0.01
0.01
0.01
0.01
0.01
0.01
0.01
0.00999999
0.00999996
0.00999987
0.00999961
0.00999891
0.00999703
0.00999228
0.00998088
0.00995501
0.00989997
0.0097907
0.00958942
0.00924729
0.00871343
0.00795226
0.00696457
0.00579803
0.00451926
0.00311667
0.000245524
0.000175615
5.88648e-07
3.3301e-08
1.01666e-10
2.5201e-11
6.18066e-12
9.16364e-13
3.76286e-13
1.00688e-12
8.37345e-12
3.49551e-11
2.14169e-10
4.79406e-08
1.07023e-06
0.000146846
0.000315312
0.00232944
0.0032282
0.00397815
0.00462557
0.00519217
0.00568831
0.00612077
0.00649587
0.00682008
0.00709968
0.00734055
0.007548
0.00772671
0.00788074
0.00801358
0.00812823
0.00822723
0.00831276
0.0083867
0.00845064
0.00850599
0.00855396
0.00859563
0.00863197
0.00866386
0.0086921
0.00871731
0.00873956
0.00875667
0.01
0.01
0.01
0.01
0.01
0.01
0.01
0.01
0.01
0.00999999
0.00999998
0.00999994
0.00999982
0.00999947
0.00999851
0.00999595
0.00998946
0.00997388
0.00993862
0.00986388
0.00971631
0.0094465
0.00899211
0.00829061
0.0073021
0.00603677
0.00457837
0.00308586
0.000252756
0.000188198
1.60673e-07
1.68246e-10
5.84326e-12
2.94412e-14
5.43476e-15
7.93858e-16
1.3138e-16
8.76885e-17
1.40191e-16
1.23892e-15
9.59839e-15
6.46948e-14
1.33835e-11
2.35104e-10
1.04259e-07
0.000156072
0.000369277
0.00223158
0.00307508
0.00381687
0.00447434
0.00504968
0.005547
0.00597389
0.00633924
0.00665176
0.00691926
0.00714852
0.00734531
0.00751448
0.00766012
0.00778565
0.00789395
0.00798748
0.00806831
0.00813821
0.00819873
0.0082512
0.00829682
0.00833665
0.00837166
0.00840273
0.00843052
0.00845511
0.00847404
0.01
0.01
0.01
0.01
0.01
0.01
0.01
0.01
0.01
0.00999999
0.00999998
0.00999992
0.00999977
0.00999931
0.00999804
0.00999466
0.00998609
0.00996554
0.00991915
0.0098212
0.0096289
0.00927983
0.00869685
0.0078043
0.00655341
0.00494519
0.003054
0.000205398
0.000169385
1.44214e-07
6.01267e-11
4.82536e-14
7.73564e-16
7.27598e-18
9.322e-19
1.08477e-19
3.52878e-20
2.96277e-20
3.56657e-20
1.73534e-19
2.05763e-18
1.91481e-17
2.68405e-15
7.74255e-14
3.73268e-11
4.97817e-08
0.00015325
0.000212439
0.00205266
0.00291273
0.00369869
0.00437737
0.00495041
0.00543201
0.00583753
0.00618028
0.00647115
0.00671893
0.00693072
0.00711226
0.00726827
0.00740259
0.00751845
0.00761852
0.00770505
0.00777997
0.00784495
0.00790142
0.00795065
0.0079938
0.00803191
0.00806589
0.00809646
0.00812361
0.00814455
0.01
0.01
0.01
0.01
0.01
0.01
0.01
0.01
0.01
0.00999999
0.00999997
0.0099999
0.0099997
0.00999912
0.00999751
0.0099932
0.00998229
0.00995614
0.00989728
0.00977353
0.00953204
0.00909705
0.0083768
0.00728287
0.00575562
0.00375615
0.000461827
0.000318877
3.3008e-07
1.18582e-10
3.52549e-14
1.5791e-17
9.19101e-20
1.54989e-21
1.41279e-22
2.0032e-23
1.0769e-23
9.37122e-24
1.06672e-23
2.81944e-23
3.71882e-22
5.01643e-21
4.42464e-19
2.58793e-17
2.06519e-14
4.53243e-11
1.17716e-07
0.000111776
0.000132947
0.00185719
0.00287373
0.00369292
0.00434862
0.00488188
0.00532187
0.0056889
0.00599766
0.00625917
0.00648184
0.00667231
0.00683583
0.00697665
0.00709822
0.00720342
0.00729464
0.00737392
0.00744298
0.00750334
0.00755632
0.00760312
0.0076448
0.0076823
0.00771632
0.00774674
0.00777025
0.01
0.01
0.01
0.01
0.01
0.01
0.01
0.01
0.01
0.00999999
0.00999996
0.00999988
0.00999964
0.00999893
0.00999694
0.00999165
0.00997824
0.00994617
0.0098742
0.00972364
0.00943187
0.00891099
0.00805728
0.00677344
0.00500562
0.00285559
0.000198304
0.000103495
2.19617e-08
2.84054e-12
3.05283e-16
3.60826e-20
1.59619e-23
2.9082e-25
2.12659e-26
4.75016e-27
3.06024e-27
2.65641e-27
3.01371e-27
5.81318e-27
6.08773e-26
1.16418e-24
7.29585e-23
2.16612e-20
4.5385e-17
1.06632e-13
2.12162e-10
3.14967e-07
0.000171312
0.00023903
0.00209396
0.00305796
0.00377356
0.00434051
0.004802
0.00518361
0.00550278
0.00577212
0.00600106
0.00619684
0.00636511
0.00651039
0.00663627
0.00674575
0.00684127
0.00692491
0.00699842
0.00706333
0.00712095
0.00717248
0.00721895
0.00726129
0.0073001
0.00733505
0.00736214
0.01
0.01
0.01
0.01
0.01
0.01
0.01
0.01
0.01
0.00999999
0.00999996
0.00999986
0.00999957
0.00999873
0.00999638
0.00999011
0.00997423
0.00993634
0.00985162
0.00967538
0.00933661
0.00873843
0.00777067
0.00632736
0.00428415
0.000409912
0.000309213
2.47502e-07
8.19363e-11
2.35103e-14
5.70435e-18
1.18156e-21
2.15671e-25
8.4147e-29
3.565e-30
1.19464e-30
8.02457e-31
6.93803e-31
7.879e-31
1.36605e-30
9.80849e-30
3.46014e-28
2.3871e-25
5.10194e-22
1.36019e-18
4.54141e-15
1.54348e-11
4.11649e-08
5.99398e-05
0.000103149
0.00171916
0.00254768
0.00324928
0.00382195
0.00428982
0.0046759
0.00499806
0.00526968
0.00550079
0.00569896
0.00587006
0.00601866
0.00614841
0.00626228
0.00636269
0.00645166
0.0065309
0.00660186
0.00666582
0.00672389
0.00677703
0.00682606
0.00687147
0.00691261
0.00694452
0.01
0.01
0.01
0.01
0.01
0.01
0.01
0.01
0.01
0.00999998
0.00999995
0.00999984
0.00999951
0.00999855
0.00999587
0.00998871
0.00997061
0.00992752
0.00983155
0.00963311
0.0092552
0.00859727
0.00755659
0.00606627
0.0041385
0.000172534
0.000124821
9.143e-08
2.7428e-11
5.70945e-15
9.52451e-19
1.42054e-22
2.14017e-26
3.64748e-30
1.39877e-33
2.93567e-34
2.00498e-34
1.74052e-34
1.96166e-34
3.41103e-34
3.8477e-32
8.4303e-29
1.71803e-25
3.07651e-22
4.76442e-19
6.368e-16
8.24015e-13
1.91164e-09
1.16737e-05
0.000337716
0.00122596
0.00204522
0.00275908
0.0033387
0.00380787
0.00419256
0.00451274
0.00478295
0.00501372
0.00521283
0.00538613
0.00553813
0.00567236
0.00579167
0.00589832
0.00599422
0.00608094
0.00615982
0.00623201
0.00629848
0.0063601
0.00641755
0.00647112
0.00651981
0.00655755
0.01
0.01
0.01
0.01
0.01
0.01
0.01
0.01
0.01
0.00999998
0.00999995
0.00999983
0.00999947
0.00999841
0.00999546
0.00998761
0.00996777
0.00992064
0.00981606
0.00960102
0.00919494
0.00849704
0.0074151
0.00591396
0.00406205
0.000218963
0.000147466
5.97802e-08
1.12583e-11
1.5654e-15
2.01849e-19
3.13204e-23
6.5047e-27
1.55618e-30
3.75401e-34
1.58585e-37
4.96866e-38
4.37588e-38
5.28994e-38
1.28169e-35
3.24749e-32
7.4664e-29
1.52884e-25
2.74413e-22
4.23114e-19
5.46094e-16
5.71896e-13
4.7828e-10
3.8657e-07
0.000157043
0.000220261
0.00156128
0.00234707
0.00294078
0.00340885
0.00378889
0.0041047
0.00437207
0.0046019
0.00480192
0.00497784
0.00513394
0.00527355
0.00539925
0.00551316
0.00561697
0.00571208
0.00579969
0.00588079
0.00595624
0.00602675
0.00609289
0.00615475
0.00621101
0.00625452
0.01
0.01
0.01
0.01
0.01
0.01
0.01
0.01
0.00999999
0.00999998
0.00999994
0.00999982
0.00999944
0.00999832
0.00999522
0.00998694
0.00996607
0.00991659
0.00980707
0.00958275
0.00916151
0.0084434
0.00734331
0.00584246
0.00402918
0.000255536
0.000161209
4.16558e-08
5.77438e-12
6.5593e-16
8.83202e-20
1.82543e-23
4.71251e-27
1.21942e-30
3.00727e-34
7.18355e-38
2.96859e-41
1.27197e-41
4.23387e-39
1.18426e-35
3.02757e-32
6.98096e-29
1.43337e-25
2.57899e-22
3.98297e-19
5.13809e-16
5.33983e-13
4.28004e-10
2.63194e-07
6.74143e-05
9.05287e-05
0.00137657
0.00212941
0.002712
0.00317241
0.00354663
0.00385855
0.004124
0.0043537
0.00455518
0.0047339
0.00489391
0.00503829
0.00516948
0.00528937
0.00539953
0.00550123
0.00559554
0.00568335
0.00576542
0.0058424
0.00591473
0.00598244
0.00604394
0.00609143
0.01
0.01
0.01
0.01
0.01
0.01
0.01
0.01
0.00999999
0.00999998
0.00999994
0.00999982
0.00999943
0.00999831
0.00999519
0.00998687
0.00996592
0.00991627
0.00980651
0.00958188
0.00916035
0.0084422
0.00734241
0.00584203
0.00402878
0.000254771
0.000160998
4.19471e-08
5.84609e-12
6.65858e-16
8.93588e-20
1.83547e-23
4.72454e-27
1.22154e-30
3.01168e-34
7.19217e-38
2.91968e-41
1.23202e-41
4.2327e-39
1.18408e-35
3.02715e-32
6.98014e-29
1.43323e-25
2.57878e-22
3.98273e-19
5.13791e-16
5.33982e-13
4.2803e-10
2.63266e-07
6.74574e-05
9.05874e-05
0.0013767
0.00212969
0.00271257
0.00317344
0.00354828
0.00386098
0.0041273
0.00435796
0.00456046
0.00474022
0.00490129
0.00504673
0.00517894
0.00529984
0.00541096
0.00551357
0.00560874
0.00569736
0.00578019
0.00585787
0.00593086
0.00599916
0.0060612
0.0061091
0.01
0.01
0.01
0.01
0.01
0.01
0.01
0.01
0.00999999
0.00999998
0.00999994
0.00999982
0.00999945
0.00999837
0.00999536
0.00998735
0.00996719
0.00991944
0.00981383
0.00959733
0.0091897
0.00849092
0.00740969
0.00591072
0.0040603
0.000217708
0.000146837
6.04874e-08
1.15293e-11
1.61792e-15
2.09071e-19
3.21352e-23
6.59133e-27
1.56667e-30
3.77016e-34
1.55167e-37
4.73735e-38
4.19458e-38
5.09679e-38
1.28084e-35
3.24623e-32
7.46396e-29
1.52844e-25
2.74357e-22
4.23057e-19
5.46065e-16
5.71949e-13
4.78565e-10
3.87808e-07
0.000157528
0.000221029
0.00156183
0.00234796
0.00294227
0.00341131
0.00379272
0.00411025
0.00437963
0.00461169
0.00481411
0.00499255
0.00515125
0.00529348
0.00542181
0.00553831
0.00564466
0.00574224
0.00583223
0.0059156
0.0059932
0.00606576
0.00613381
0.00619745
0.00625531
0.00630008
0.01
0.01
0.01
0.01
0.01
0.01
0.01
0.01
0.01
0.00999998
0.00999995
0.00999983
0.00999949
0.00999848
0.00999569
0.00998828
0.00996964
0.00992549
0.0098277
0.00962661
0.00924566
0.00858563
0.00754562
0.00605926
0.00413514
0.000171693
0.000124367
9.22254e-08
2.80113e-11
5.90018e-15
9.94042e-19
1.4905e-22
2.23892e-26
3.77275e-30
1.36395e-33
2.77332e-34
1.90362e-34
1.66106e-34
1.87769e-34
3.28556e-34
3.83871e-32
8.4257e-29
1.71731e-25
3.07565e-22
4.76419e-19
6.37239e-16
8.27703e-13
1.94083e-09
1.18829e-05
0.000335785
0.00122747
0.00204641
0.00276048
0.00334074
0.00381103
0.00419733
0.00451959
0.00479227
0.00502583
0.00522799
0.00540455
0.00555996
0.0056977
0.00582057
0.0059308
0.00603026
0.0061205
0.00620281
0.00627833
0.00634803
0.00641273
0.00647312
0.00652944
0.00658065
0.00662035
0.01
0.01
0.01
0.01
0.01
0.01
0.01
0.01
0.01
0.00999999
0.00999995
0.00999985
0.00999954
0.00999864
0.00999615
0.00998955
0.00997296
0.00993366
0.00984647
0.0096665
0.00932318
0.00872126
0.00775317