/*--------------------------------*- C++ -*----------------------------------*\
  =========                 |
  \\      /  F ield         | OpenFOAM: The Open Source CFD Toolbox
   \\    /   O peration     | Website:  https://openfoam.org
    \\  /    A nd           | Version:  7
     \\/     M anipulation  |
\*---------------------------------------------------------------------------*/
FoamFile
{
    version     2.0;
    format      ascii;
    class       volScalarField;
    location    "15";
    object      p;
}
// * * * * * * * * * * * * * * * * * * * * * * * * * * * * * * * * * * * * * //

dimensions      [0 2 -2 0 0 0 0];

internalField   nonuniform List<scalar> 
5625
(
0.00123751
0.000794439
0.000581921
0.000495545
0.00045025
0.000423142
0.000406138
0.000394701
0.000386415
0.000380023
0.000374811
0.000370334
0.000366299
0.0003625
0.000358789
0.000355054
0.000351204
0.000347171
0.000342897
0.000338333
0.000333439
0.000328183
0.000322539
0.000316485
0.000310008
0.000303098
0.000295755
0.000287981
0.00027979
0.000271198
0.00026223
0.000252917
0.000243296
0.000233409
0.000223302
0.000213026
0.000202635
0.000192182
0.000181724
0.000171315
0.000161011
0.000150862
0.000140917
0.000131221
0.000121815
0.000112733
0.000104005
9.56539e-05
8.76978e-05
8.01483e-05
7.30113e-05
6.62875e-05
5.99725e-05
5.40578e-05
4.85309e-05
4.33759e-05
3.85745e-05
3.4106e-05
2.99484e-05
2.60785e-05
2.24725e-05
1.91066e-05
1.59576e-05
1.30029e-05
1.02217e-05
7.59545e-06
5.1091e-06
2.75262e-06
5.23315e-07
-1.56837e-06
-3.48045e-06
-5.12321e-06
-6.44547e-06
-7.28793e-06
-4.91973e-06
0.000887837
0.00071016
0.000590841
0.000521015
0.00047489
0.000443514
0.000422014
0.000406773
0.000395489
0.000386771
0.000379742
0.000373826
0.000368632
0.000363886
0.000359391
0.000354999
0.000350598
0.0003461
0.000341434
0.000336544
0.000331383
0.000325914
0.000320108
0.000313942
0.0003074
0.000300472
0.000293157
0.000285455
0.000277378
0.000268942
0.000260167
0.000251082
0.00024172
0.000232119
0.000222321
0.000212372
0.000202318
0.00019221
0.000182098
0.000172031
0.00016206
0.00015223
0.000142586
0.00013317
0.000124017
0.000115161
0.000106628
9.84421e-05
9.0619e-05
8.31708e-05
7.61043e-05
6.94215e-05
6.31199e-05
5.71931e-05
5.1631e-05
4.64208e-05
4.15468e-05
3.69916e-05
3.27362e-05
2.87606e-05
2.50444e-05
2.1567e-05
1.83086e-05
1.52503e-05
1.23753e-05
9.66931e-06
7.12239e-06
4.73038e-06
2.49719e-06
4.3893e-07
-1.39584e-06
-2.90847e-06
-4.12085e-06
-5.27936e-06
-4.11036e-06
0.0006789
0.00062295
0.000563614
0.000515271
0.000477816
0.000449614
0.000428592
0.000412731
0.000400489
0.000390776
0.000382824
0.00037609
0.000370184
0.000364824
0.0003598
0.000354953
0.000350161
0.000345328
0.000340378
0.000335249
0.000329891
0.000324266
0.000318341
0.000312092
0.000305504
0.000298564
0.000291269
0.000283621
0.000275628
0.000267306
0.000258672
0.000249754
0.000240581
0.000231189
0.000221615
0.000211903
0.000202095
0.000192239
0.000182379
0.000172563
0.000162836
0.000153242
0.000143821
0.000134612
0.000125649
0.000116963
0.00010858
0.000100522
9.28034e-05
8.54376e-05
7.84313e-05
7.17873e-05
6.55042e-05
5.95773e-05
5.3998e-05
4.87553e-05
4.38358e-05
3.92242e-05
3.49036e-05
3.08563e-05
2.70643e-05
2.35094e-05
2.01741e-05
1.7042e-05
1.40986e-05
1.13321e-05
8.73456e-06
6.30377e-06
4.04376e-06
1.96687e-06
1.13341e-07
-1.42943e-06
-2.75693e-06
-4.39543e-06
-4.08086e-06
0.000570241
0.000556434
0.000527084
0.00049602
0.000468893
0.000446499
0.000428412
0.000413872
0.000402095
0.000392403
0.000384255
0.000377227
0.000370995
0.00036531
0.000359977
0.000354848
0.000349801
0.000344744
0.000339598
0.000334302
0.000328807
0.000323071
0.000317062
0.000310755
0.000304134
0.000297187
0.000289909
0.000282302
0.000274371
0.000266132
0.000257601
0.000248804
0.000239768
0.000230525
0.000221114
0.000211573
0.000201943
0.000192268
0.000182592
0.000172958
0.000163409
0.000153987
0.000144731
0.000135676
0.000126857
0.0001183
0.000110033
0.000102074
9.44407e-05
8.71438e-05
8.01907e-05
7.35846e-05
6.73248e-05
6.14073e-05
5.58248e-05
5.05674e-05
4.56232e-05
4.09781e-05
3.66169e-05
3.25237e-05
2.86817e-05
2.50745e-05
2.16862e-05
1.85016e-05
1.55076e-05
1.2693e-05
1.00504e-05
7.57615e-06
5.27132e-06
3.14061e-06
1.21224e-06
-4.42013e-07
-1.97258e-06
-4.06147e-06
-4.26358e-06
0.000506084
0.000507593
0.000494236
0.00047533
0.000456634
0.000439707
0.00042496
0.000412366
0.00040166
0.000392503
0.000384568
0.000377567
0.000371256
0.000365436
0.000359944
0.000354648
0.00034944
0.000344231
0.00033895
0.000333536
0.000327941
0.000322124
0.000316054
0.000309707
0.000303064
0.000296114
0.000288852
0.000281278
0.000273398
0.000265225
0.000256775
0.000248072
0.000239142
0.000230016
0.000220731
0.000211322
0.00020183
0.000192297
0.000182763
0.000173272
0.000163864
0.000154579
0.000145454
0.000136524
0.00012782
0.000119371
0.0001112
0.000103327
9.57682e-05
8.85338e-05
8.16313e-05
7.5064e-05
6.88317e-05
6.29306e-05
5.73542e-05
5.20936e-05
4.71376e-05
4.24734e-05
3.80868e-05
3.39629e-05
3.00863e-05
2.64416e-05
2.30139e-05
1.97889e-05
1.67539e-05
1.38979e-05
1.12125e-05
8.69241e-06
6.3344e-06
4.13601e-06
2.11516e-06
3.31801e-07
-1.40275e-06
-3.86616e-06
-4.43002e-06
0.000464951
0.000471782
0.000466966
0.000456054
0.000443614
0.00043123
0.000419622
0.000409112
0.000399743
0.000391412
0.000383961
0.000377219
0.000371024
0.00036523
0.000359709
0.000354353
0.000349071
0.000343782
0.000338424
0.000332939
0.000327282
0.000321416
0.000315309
0.000308938
0.000302284
0.000295337
0.00028809
0.000280543
0.000272702
0.000264578
0.000256188
0.000247553
0.000238699
0.000229657
0.000220461
0.000211147
0.000201754
0.000192322
0.000182892
0.000173505
0.0001642
0.000155015
0.000145989
0.000137153
0.000128539
0.000120175
0.000112082
0.00010428
9.67849e-05
8.96063e-05
8.27515e-05
7.62235e-05
7.00222e-05
6.41439e-05
5.85826e-05
5.33295e-05
4.83741e-05
4.37042e-05
3.93065e-05
3.51667e-05
3.12702e-05
2.76023e-05
2.41486e-05
2.08952e-05
1.78295e-05
1.49399e-05
1.2217e-05
9.65299e-06
7.24099e-06
4.97231e-06
2.85727e-06
9.47991e-07
-9.68994e-07
-3.73213e-06
-4.56072e-06
0.000437198
0.000445358
0.000444899
0.000439021
0.000431027
0.000422219
0.000413328
0.000404798
0.000396826
0.000389455
0.000382646
0.000376322
0.000370387
0.000364745
0.000359305
0.000353983
0.000348704
0.000343402
0.000338022
0.000332512
0.000326833
0.000320947
0.000314827
0.000308449
0.000301796
0.000294857
0.000287624
0.000280098
0.000272285
0.000264194
0.000255841
0.000247248
0.000238441
0.000229449
0.000220306
0.000211048
0.000201713
0.000192342
0.000182975
0.000173651
0.00016441
0.000155291
0.000146329
0.000137558
0.000129007
0.000120703
0.00011267
0.000104924
9.7482e-05
9.03524e-05
8.35422e-05
7.7054e-05
7.08871e-05
6.5038e-05
5.95002e-05
5.42652e-05
4.93227e-05
4.46606e-05
4.0266e-05
3.6125e-05
3.22233e-05
2.85466e-05
2.50806e-05
2.18115e-05
1.87264e-05
1.5813e-05
1.30604e-05
1.04588e-05
7.99785e-06
5.6642e-06
3.46275e-06
1.44105e-06
-6.29389e-07
-3.62386e-06
-4.64886e-06
0.000417469
0.000425534
0.000427245
0.000424482
0.000419565
0.000413461
0.000406793
0.000400006
0.000393356
0.000386962
0.000380862
0.000375041
0.000369459
0.00036406
0.000358783
0.000353568
0.000348358
0.0003431
0.000337747
0.000332255
0.000326587
0.000320711
0.000314601
0.000308233
0.000301592
0.000294666
0.000287448
0.000279938
0.00027214
0.000264066
0.00025573
0.000247153
0.000238362
0.000229386
0.00022026
0.00021102
0.000201705
0.000192355
0.00018301
0.00017371
0.000164497
0.000155406
0.000146476
0.000137738
0.000129224
0.000120959
0.000112967
0.000105263
9.78638e-05
9.0777e-05
8.40087e-05
7.75609e-05
7.14323e-05
6.56186e-05
6.01131e-05
5.49068e-05
4.99891e-05
4.53479e-05
4.09703e-05
3.68424e-05
3.295e-05
2.92786e-05
2.58141e-05
2.25424e-05
1.94501e-05
1.6524e-05
1.3752e-05
1.11223e-05
8.62206e-06
6.23444e-06
3.96083e-06
1.84602e-06
-3.46253e-07
-3.51087e-06
-4.68491e-06
0.000402822
0.000410378
0.000413152
0.000412308
0.000409491
0.000405381
0.00040047
0.000395148
0.000389677
0.000384208
0.000378818
0.000373536
0.000368357
0.000363257
0.000358201
0.00035315
0.000348062
0.000342895
0.00033761
0.000332172
0.000326548
0.000320708
0.000314628
0.000308287
0.000301669
0.000294761
0.000287558
0.000280059
0.000272267
0.000264193
0.000255852
0.000247266
0.000238461
0.000229468
0.000220322
0.000211062
0.000201726
0.000192357
0.000182994
0.00017368
0.000164455
0.000155358
0.000146426
0.000137693
0.000129189
0.000120942
0.000112972
0.000105297
9.7931e-05
9.08815e-05
8.41533e-05
7.77474e-05
7.16614e-05
6.589e-05
6.04256e-05
5.52587e-05
5.03779e-05
4.57709e-05
4.14242e-05
3.73236e-05
3.34548e-05
2.98032e-05
2.63543e-05
2.30935e-05
2.00069e-05
1.70807e-05
1.43014e-05
1.16558e-05
9.12917e-06
6.70231e-06
4.37432e-06
2.18837e-06
-9.45024e-08
-3.37435e-06
-4.6631e-06
0.000391638
0.000398619
0.000401887
0.000402222
0.000400828
0.00039817
0.000394618
0.000390495
0.000386038
0.000381404
0.000376688
0.000371942
0.000367185
0.000362416
0.00035762
0.000352773
0.000347845
0.000342807
0.000337627
0.000332275
0.000326722
0.000320943
0.000314913
0.000308614
0.00030203
0.000295147
0.00028796
0.000280466
0.00027267
0.00026458
0.000256213
0.000247591
0.000238741
0.000229696
0.000220494
0.000211173
0.000201777
0.000192346
0.000182926
0.000173557
0.000164282
0.000155142
0.000146174
0.000137415
0.000128896
0.000120644
0.00011268
0.000105021
9.76794e-05
9.06626e-05
8.39738e-05
7.76122e-05
7.15741e-05
6.58527e-05
6.04393e-05
5.53231e-05
5.04919e-05
4.59325e-05
4.16308e-05
3.75722e-05
3.37418e-05
3.01246e-05
2.67056e-05
2.347e-05
2.04031e-05
1.74904e-05
1.47175e-05
1.20701e-05
9.53204e-06
7.08282e-06
4.72007e-06
2.48555e-06
1.41919e-07
-3.20329e-06
-4.58034e-06
0.000382975
0.000389417
0.000392879
0.000393934
0.000393499
0.00039189
0.000389374
0.000386212
0.000382608
0.000378706
0.000374607
0.000370372
0.000366035
0.00036161
0.000357095
0.000352479
0.000347742
0.000342862
0.000337816
0.000332577
0.000327122
0.000321425
0.000315466
0.000309224
0.000302684
0.000295833
0.000288663
0.00028117
0.000273359
0.000265238
0.000256823
0.000248137
0.00023921
0.000230077
0.000220778
0.000211356
0.000201856
0.000192322
0.0001828
0.000173335
0.00016397
0.000154749
0.000145711
0.000136896
0.000128334
0.000120055
0.00011208
0.000104425
9.71008e-05
9.01138e-05
8.34649e-05
7.71515e-05
7.11679e-05
6.55055e-05
6.01539e-05
5.51007e-05
5.03325e-05
4.5835e-05
4.15931e-05
3.75915e-05
3.38147e-05
3.0247e-05
2.6873e-05
2.36773e-05
2.06448e-05
1.77602e-05
1.50086e-05
1.23747e-05
9.84161e-06
7.38813e-06
5.0109e-06
2.75023e-06
3.73879e-07
-2.99069e-06
-4.43491e-06
0.000376249
0.000382206
0.000385699
0.000387182
0.000387389
0.000386531
0.000384799
0.000382398
0.000379497
0.000376225
0.000372676
0.000368915
0.000364983
0.000360901
0.000356677
0.000352308
0.000347783
0.000343086
0.000338198
0.000333097
0.000327761
0.000322168
0.000316297
0.000310128
0.000303644
0.000296832
0.000289681
0.000282187
0.000274351
0.000266182
0.000257696
0.000248917
0.000239877
0.000230617
0.000221179
0.000211612
0.000201963
0.000192282
0.000182615
0.000173009
0.000163511
0.000154168
0.000145024
0.000136119
0.000127488
0.00011916
0.000111158
0.000103496
9.61834e-05
8.92246e-05
8.26181e-05
7.63588e-05
7.04381e-05
6.48454e-05
5.95679e-05
5.45914e-05
4.99008e-05
4.54803e-05
4.13138e-05
3.73849e-05
3.36774e-05
3.01749e-05
2.68614e-05
2.37211e-05
2.07383e-05
1.78972e-05
1.51824e-05
1.25782e-05
1.00672e-05
7.62806e-06
5.25673e-06
2.99162e-06
6.08919e-07
-2.73223e-06
-4.22613e-06
0.000371075
0.000376593
0.000380022
0.000381747
0.000382375
0.00038205
0.000380905
0.0003791
0.000376773
0.000374035
0.000370969
0.00036764
0.000364088
0.00036034
0.000356409
0.000352297
0.000347998
0.000343502
0.000338792
0.00033385
0.000328655
0.000323187
0.000317423
0.000311343
0.000304929
0.000298164
0.000291036
0.000283538
0.000275668
0.000267435
0.000258854
0.00024995
0.00024076
0.000231328
0.000221705
0.000211945
0.0002021
0.000192224
0.000182364
0.000172571
0.000162895
0.000153387
0.000144096
0.000135067
0.000126338
0.000117939
0.000109894
0.000102215
9.49107e-05
8.79812e-05
8.14221e-05
7.52249e-05
6.93781e-05
6.38678e-05
5.86786e-05
5.3794e-05
4.91969e-05
4.48698e-05
4.07952e-05
3.69556e-05
3.33338e-05
2.99129e-05
2.6676e-05
2.3607e-05
2.06897e-05
1.7908e-05
1.52462e-05
1.26883e-05
1.02168e-05
7.81061e-06
5.46517e-06
3.21648e-06
8.52121e-07
-2.42547e-06
-3.95417e-06
0.000367185
0.000372296
0.000375603
0.000377445
0.00037834
0.000378385
0.000377676
0.000376334
0.000374472
0.000372181
0.000369536
0.000366593
0.000363395
0.000359967
0.000356325
0.000352475
0.000348413
0.000344132
0.000339619
0.000334855
0.000329822
0.000324498
0.000318862
0.000312889
0.00030656
0.000299854
0.000292755
0.000285253
0.000277343
0.000269028
0.000260326
0.000251263
0.000241879
0.000232227
0.000222366
0.00021236
0.000202269
0.000192146
0.000182044
0.000172013
0.000162109
0.000152388
0.000142906
0.000133715
0.000124857
0.000116366
0.000108262
0.00010056
9.32619e-05
8.63655e-05
7.98619e-05
7.37383e-05
6.7979e-05
6.25665e-05
5.74822e-05
5.27068e-05
4.82208e-05
4.40049e-05
4.00399e-05
3.63071e-05
3.27883e-05
2.94657e-05
2.63221e-05
2.33407e-05
2.05051e-05
1.7799e-05
1.52065e-05
1.27116e-05
1.02971e-05
7.94221e-06
5.6421e-06
3.42966e-06
1.10683e-06
-2.06952e-06
-3.62008e-06
0.000364383
0.000369105
0.000372251
0.000374124
0.000375175
0.000375471
0.000375079
0.000374094
0.000372604
0.000370687
0.000368405
0.000365809
0.000362936
0.000359812
0.000356453
0.000352865
0.000349048
0.000344995
0.000340694
0.000336128
0.000331278
0.000326121
0.000320633
0.000314788
0.000308562
0.000301931
0.000294872
0.000287369
0.000279412
0.000271002
0.00026215
0.000252888
0.000243261
0.000233331
0.000223172
0.000212862
0.000202468
0.000192047
0.00018165
0.000171328
0.00016114
0.00015115
0.000141428
0.000132033
0.000123013
0.000114406
0.000106231
9.84999e-05
9.1211e-05
8.43558e-05
7.79199e-05
7.1885e-05
6.62305e-05
6.09343e-05
5.59742e-05
5.13275e-05
4.69722e-05
4.28868e-05
3.90503e-05
3.54429e-05
3.20451e-05
2.88384e-05
2.58051e-05
2.29281e-05
2.01906e-05
1.75764e-05
1.50696e-05
1.26544e-05
1.03138e-05
8.02818e-06
5.79202e-06
3.63464e-06
1.375e-06
-1.66466e-06
-3.22566e-06
0.000362518
0.00036686
0.000369815
0.000371656
0.000372782
0.00037324
0.000373075
0.00037236
0.000371169
0.000369561
0.000367592
0.000365304
0.00036273
0.000359894
0.00035681
0.000353486
0.00034992
0.000346107
0.000342034
0.000337685
0.000333039
0.000328072
0.000322757
0.000317065
0.000310966
0.00030443
0.000297427
0.000289932
0.000281927
0.000273406
0.000264377
0.000254871
0.000244941
0.000234663
0.000224134
0.000213453
0.000202698
0.000191925
0.00018118
0.000170508
0.000159971
0.000149649
0.000139627
0.00012998
0.000120763
0.000112017
0.00010376
9.59995e-05
8.87268e-05
8.19261e-05
7.55752e-05
6.96491e-05
6.41208e-05
5.89633e-05
5.41497e-05
4.9654e-05
4.54511e-05
4.15172e-05
3.78297e-05
3.43671e-05
3.11091e-05
2.80364e-05
2.51309e-05
2.23751e-05
1.97523e-05
1.72463e-05
1.48413e-05
1.25221e-05
1.02722e-05
8.07291e-06
5.91843e-06
3.83375e-06
1.65756e-06
-1.21231e-06
-2.77349e-06
0.000361468
0.000365431
0.000368171
0.000369934
0.000371075
0.000371625
0.000371616
0.000371105
0.00037015
0.0003688
0.0003671
0.000365087
0.000362788
0.000360224
0.000357409
0.000354347
0.000351039
0.000347477
0.000343649
0.000339537
0.000335119
0.000330368
0.000325256
0.000319747
0.000313804
0.000307391
0.000300467
0.000292997
0.00028495
0.000276308
0.000267071
0.000257269
0.000246963
0.000236249
0.000225258
0.00021413
0.000202954
0.00019178
0.000180633
0.00016955
0.00015859
0.000147855
0.000137462
0.000127506
0.000118053
0.000109145
0.000100799
9.3014e-05
8.57719e-05
7.90459e-05
7.28042e-05
6.70128e-05
6.16376e-05
5.66453e-05
5.20043e-05
4.76845e-05
4.36581e-05
3.98986e-05
3.63817e-05
3.30845e-05
2.99858e-05
2.70658e-05
2.43058e-05
2.16883e-05
1.91966e-05
1.68148e-05
1.45276e-05
1.232e-05
1.01767e-05
8.08014e-06
6.024e-06
4.02852e-06
1.95452e-06
-7.14756e-07
-2.2669e-06
0.000361128
0.00036471
0.000367215
0.000368865
0.000369974
0.000370564
0.000370655
0.000370294
0.000369525
0.00036839
0.000366923
0.000365155
0.000363111
0.000360806
0.000358253
0.000355455
0.000352411
0.000349112
0.000345546
0.000341693
0.000337529
0.000333026
0.000328149
0.000322858
0.000317111
0.000310859
0.00030405
0.000296633
0.00028856
0.000279793
0.000270318
0.000260159
0.000249386
0.000238117
0.000226543
0.000214877
0.000203226
0.00019161
0.000180022
0.000168461
0.000156983
0.000145731
0.000134876
0.000124544
0.000114812
0.000105721
9.72859e-05
8.94907e-05
8.23029e-05
7.56815e-05
6.95813e-05
6.39579e-05
5.87683e-05
5.39727e-05
4.95341e-05
4.54185e-05
4.15948e-05
3.80344e-05
3.47111e-05
3.1601e-05
2.86819e-05
2.59334e-05
2.33368e-05
2.08745e-05
1.85302e-05
1.62882e-05
1.4134e-05
1.20533e-05
1.00316e-05
8.05308e-06
6.11082e-06
4.21974e-06
2.26518e-06
-1.75238e-07
-1.70995e-06
0.000361408
0.000364602
0.000366855
0.000368365
0.000369406
0.000369995
0.000370144
0.00036989
0.000369267
0.00036831
0.000367046
0.000365501
0.000363693
0.000361637
0.000359342
0.000356809
0.000354037
0.000351014
0.000347728
0.000344158
0.000340278
0.000336056
0.000331454
0.000326427
0.000320922
0.000314881
0.000308238
0.000300919
0.000292853
0.000283972
0.000274232
0.000263646
0.000252287
0.000240294
0.000227963
0.000215655
0.000203489
0.000191421
0.000179369
0.000167269
0.00015515
0.000143235
0.000131795
0.000121008
0.000110949
0.00010166
9.31443e-05
8.5366e-05
7.82705e-05
7.17955e-05
6.588e-05
6.04661e-05
5.55017e-05
5.09394e-05
4.67371e-05
4.28568e-05
3.92646e-05
3.59297e-05
3.28245e-05
2.99238e-05
2.72049e-05
2.46472e-05
2.22318e-05
1.99415e-05
1.77603e-05
1.56733e-05
1.36666e-05
1.1727e-05
9.84105e-06
7.99465e-06
6.1805e-06
4.40772e-06
2.58821e-06
4.02259e-07
-1.10743e-06
0.000362227
0.000365024
0.000367011
0.000368359
0.000369305
0.00036986
0.000370033
0.000369851
0.000369344
0.000368536
0.000367451
0.000366108
0.000364523
0.000362707
0.000360667
0.000358403
0.00035591
0.000353179
0.000350194
0.000346933
0.000343369
0.000339466
0.000335185
0.000330473
0.000325271
0.000319508
0.0003131
0.00030595
0.000297951
0.000288989
0.000278968
0.000267872
0.000255776
0.000242805
0.000229442
0.000216371
0.000203694
0.000191219
0.000178737
0.000166048
0.000153113
0.00014031
0.000128118
0.000116782
0.000106346
9.68496e-05
8.82798e-05
8.05667e-05
7.36195e-05
6.73495e-05
6.16742e-05
5.65215e-05
5.18288e-05
4.75419e-05
4.36138e-05
4.00031e-05
3.66732e-05
3.35919e-05
3.073e-05
2.80618e-05
2.55641e-05
2.32164e-05
2.09998e-05
1.88978e-05
1.68949e-05
1.49772e-05
1.31317e-05
1.13462e-05
9.60894e-06
7.90754e-06
6.23432e-06
4.59226e-06
2.92175e-06
1.01294e-06
-4.64871e-07
0.000363506
0.0003659
0.000367608
0.000368777
0.000369606
0.000370103
0.000370273
0.000370138
0.00036972
0.000369038
0.000368112
0.000366956
0.000365583
0.000364001
0.000362215
0.000360223
0.00035802
0.000355596
0.000352933
0.00035001
0.000346797
0.000343257
0.000339347
0.000335012
0.000330186
0.000324786
0.00031871
0.000311834
0.000304005
0.000295039
0.000284749
0.000273067
0.000260071
0.000245729
0.000230797
0.000216826
0.000203746
0.000191031
0.000178259
0.000164973
0.000150905
0.00013683
0.000123655
0.000111689
0.00010084
9.11449e-05
8.25782e-05
7.50079e-05
6.82926e-05
6.23059e-05
5.69418e-05
5.21122e-05
4.77453e-05
4.37809e-05
4.01685e-05
3.6864e-05
3.38292e-05
3.10305e-05
2.84381e-05
2.60258e-05
2.37705e-05
2.16516e-05
1.96511e-05
1.7753e-05
1.59428e-05
1.42076e-05
1.25358e-05
1.09165e-05
9.33943e-06
7.79439e-06
6.27336e-06
4.77288e-06
3.26347e-06
1.65134e-06
2.1156e-07
0.000365172
0.000367157
0.000368577
0.000369553
0.000370249
0.000370669
0.000370816
0.000370707
0.000370358
0.000369785
0.000369001
0.00036802
0.00036685
0.000365498
0.000363966
0.000362253
0.000360351
0.00035825
0.000355933
0.000353376
0.000350551
0.00034742
0.000343938
0.000340049
0.000335683
0.000330751
0.000325137
0.000318686
0.000311195
0.000302385
0.000291903
0.000279596
0.000265602
0.000249306
0.000231653
0.000216605
0.000203461
0.000190912
0.00017822
0.000164399
0.000148544
0.000132498
0.00011807
0.000105472
9.42e-05
8.43564e-05
7.58991e-05
6.85983e-05
6.2233e-05
5.66342e-05
5.16683e-05
4.72342e-05
4.32534e-05
3.96629e-05
3.64102e-05
3.34505e-05
3.07447e-05
2.82585e-05
2.59622e-05
2.38293e-05
2.18371e-05
1.99656e-05
1.81976e-05
1.6518e-05
1.49138e-05
1.33734e-05
1.18864e-05
1.04437e-05
9.03681e-06
7.65786e-06
6.29855e-06
4.94883e-06
3.61065e-06
2.31132e-06
9.14952e-07
0.000367155
0.000368726
0.000369851
0.000370625
0.000371176
0.000371505
0.000371614
0.000371514
0.000371219
0.00037074
0.000370087
0.000369271
0.000368298
0.000367173
0.000365898
0.000364469
0.00036288
0.00036112
0.000359171
0.000357011
0.000354612
0.000351936
0.000348941
0.000345572
0.000341761
0.000337419
0.000332427
0.000326611
0.000319724
0.000311359
0.000300842
0.000287764
0.000272502
0.000253087
0.00023131
0.000215121
0.000202592
0.000190941
0.000179013
0.000164914
0.000146535
0.000127477
0.000111227
9.79555e-05
8.61701e-05
7.62387e-05
6.8082e-05
6.12449e-05
5.53965e-05
5.03179e-05
4.58536e-05
4.18952e-05
3.8365e-05
3.52016e-05
3.2354e-05
2.97782e-05
2.74356e-05
2.52923e-05
2.33184e-05
2.14881e-05
1.97792e-05
1.81728e-05
1.66527e-05
1.52053e-05
1.3819e-05
1.24839e-05
1.11914e-05
9.93417e-06
8.70568e-06
7.50072e-06
6.31082e-06
5.11919e-06
3.96027e-06
2.98617e-06
1.63786e-06
0.000369386
0.00037054
0.000371367
0.000371933
0.00037233
0.000372558
0.000372618
0.000372517
0.000372263
0.000371867
0.000371336
0.000370678
0.000369897
0.000368998
0.000367981
0.000366844
0.000365579
0.000364176
0.000362618
0.000360885
0.000358949
0.000356775
0.000354324
0.000351547
0.000348387
0.000344768
0.000340586
0.000335679
0.000329782
0.000322349
0.000312
0.00029766
0.000281066
0.000253964
0.000228117
0.000211696
0.000201019
0.000191151
0.000181011
0.000167604
0.000147273
0.000123051
0.000102907
8.92293e-05
7.65285e-05
6.65057e-05
5.8948e-05
5.28726e-05
4.7765e-05
4.33687e-05
3.95195e-05
3.61194e-05
3.31034e-05
3.04191e-05
2.8021e-05
2.58678e-05
2.39225e-05
2.21517e-05
2.05263e-05
1.9021e-05
1.76148e-05
1.629e-05
1.50319e-05
1.38286e-05
1.26706e-05
1.15497e-05
1.04596e-05
9.39472e-06
8.35099e-06
7.32596e-06
6.3111e-06
5.28292e-06
4.30901e-06
3.66865e-06
2.37219e-06
0.000371795
0.000372536
0.000373064
0.000373419
0.000373658
0.000373779
0.000373781
0.000373669
0.000373449
0.000373128
0.000372711
0.000372205
0.000371613
0.000370939
0.000370184
0.000369344
0.000368414
0.000367385
0.000366241
0.000364962
0.000363523
0.000361893
0.000360037
0.000357916
0.000355491
0.00035272
0.000349549
0.000345887
0.00034156
0.000335979
0.000326475
0.00031103
0.000303261
0.000265494
0.000210482
0.000202271
0.000198081
0.000191864
0.000186626
0.000180413
0.000147501
0.000108642
8.56909e-05
7.80187e-05
6.47503e-05
5.47604e-05
4.83301e-05
4.34506e-05
3.93733e-05
3.58425e-05
3.27198e-05
2.99515e-05
2.75053e-05
2.53465e-05
2.34387e-05
2.17451e-05
2.023e-05
1.88608e-05
1.76089e-05
1.64502e-05
1.53647e-05
1.43364e-05
1.33527e-05
1.24038e-05
1.14823e-05
1.05826e-05
9.70052e-06
8.83292e-06
7.97816e-06
7.1368e-06
6.30043e-06
5.43896e-06
4.65342e-06
4.35109e-06
3.10942e-06
0.000374316
0.000374649
0.000374881
0.000375027
0.000375106
0.000375116
0.000375057
0.000374929
0.000374736
0.000374483
0.000374175
0.000373815
0.00037341
0.00037296
0.000372468
0.000371932
0.000371348
0.000370707
0.000369996
0.000369197
0.000368287
0.000367236
0.000366014
0.000364593
0.000362958
0.000361113
0.000359113
0.00035708
0.000355205
0.000353594
0.000348304
0.000331407
0.000347636
0.000393594
0.0001224
0.00017646
0.000190764
0.000194508
0.000202702
0.000239282
0.000107567
4.02039e-05
5.18394e-05
6.08905e-05
4.85938e-05
4.00685e-05
3.60321e-05
3.30366e-05
3.03465e-05
2.78627e-05
2.55492e-05
2.34582e-05
2.1619e-05
2.00213e-05
1.86394e-05
1.74396e-05
1.63865e-05
1.54471e-05
1.45929e-05
1.38008e-05
1.30524e-05
1.23338e-05
1.16348e-05
1.09482e-05
1.02694e-05
9.59538e-06
8.92477e-06
8.25697e-06
7.59306e-06
6.93678e-06
6.28001e-06
5.58626e-06
4.98988e-06
5.02547e-06
3.84057e-06
0.000376884
0.000376819
0.000376763
0.000376701
0.000376623
0.000376523
0.000376399
0.000376251
0.000376081
0.000375892
0.000375687
0.000375471
0.000375248
0.000375022
0.000374795
0.000374567
0.000374336
0.000374097
0.000373838
0.000373542
0.000373187
0.000372745
0.000372182
0.000371475
0.000370621
0.000369654
0.000368764
0.00036853
0.000369973
0.000375206
0.000382741
0.000373084
0.000227069
0.000290406
0.000129163
0.000402611
0.000851824
0.00103362
0.000873582
0.000471852
0.000268277
0.000144807
9.66997e-05
3.99303e-05
2.34345e-05
2.04032e-05
2.17317e-05
2.18712e-05
2.09956e-05
1.96693e-05
1.81531e-05
1.67252e-05
1.5499e-05
1.44836e-05
1.3657e-05
1.29836e-05
1.24239e-05
1.1942e-05
1.15088e-05
1.11019e-05
1.0705e-05
1.03068e-05
9.90016e-06
9.48123e-06
9.04845e-06
8.60213e-06
8.14379e-06
7.67575e-06
7.20205e-06
6.72975e-06
6.25122e-06
5.72382e-06
5.31476e-06
5.68357e-06
4.55643e-06
0.000379434
0.000378986
0.000378652
0.000378392
0.00037816
0.000377951
0.000377763
0.000377594
0.000377444
0.000377315
0.000377209
0.000377132
0.000377088
0.000377083
0.00037712
0.000377203
0.000377332
0.000377505
0.000377714
0.000377944
0.000378173
0.000378365
0.000378479
0.000378472
0.000378314
0.000377958
0.000377598
0.000378472
0.000382076
0.000389288
0.000395636
0.000240913
0.000217002
0.00151766
0.000900006
0.000795888
0.00090453
0.000988027
0.000984502
0.000999446
0.00134754
0.00260124
0.000435982
0.000171464
-1.58776e-06
-3.36013e-07
6.9385e-06
1.09584e-05
1.20526e-05
1.16965e-05
1.07257e-05
9.83343e-06
9.1883e-06
8.76448e-06
8.52187e-06
8.40989e-06
8.37697e-06
8.38105e-06
8.39132e-06
8.38646e-06
8.35288e-06
8.28291e-06
8.17335e-06
8.02421e-06
7.83779e-06
7.61804e-06
7.36989e-06
7.09879e-06
6.81195e-06
6.51988e-06
6.21564e-06
5.85078e-06
5.62442e-06
6.31701e-06
5.24754e-06
0.000381906
0.000381095
0.000380498
0.000380048
0.00037967
0.000379357
0.000379107
0.000378917
0.000378785
0.000378711
0.0003787
0.000378757
0.000378887
0.000379098
0.000379397
0.000379789
0.000380282
0.000380876
0.000381568
0.000382347
0.000383191
0.000384058
0.000384878
0.000385564
0.000386001
0.000385875
0.000385083
0.000385857
0.000388992
0.000391916
0.000239883
0.0012224
0.000897913
0.00112265
0.00100423
0.000951356
0.000980753
0.00102909
0.00107581
0.00116852
0.00139782
0.0017488
0.00153974
0.00254612
0.000288511
-4.00359e-06
-1.40105e-06
2.56043e-06
4.51701e-06
4.43467e-06
3.39343e-06
2.79111e-06
2.68254e-06
2.87082e-06
3.25485e-06
3.75043e-06
4.28411e-06
4.8049e-06
5.28057e-06
5.69227e-06
6.03064e-06
6.29304e-06
6.48132e-06
6.60037e-06
6.65705e-06
6.65941e-06
6.61616e-06
6.53617e-06
6.42999e-06
6.31165e-06
6.17504e-06
5.9664e-06
5.91532e-06
6.91749e-06
5.9045e-06
0.000384241
0.000383093
0.000382249
0.000381623
0.000381108
0.000380698
0.000380391
0.00038018
0.000380064
0.000380043
0.000380122
0.000380306
0.000380603
0.000381023
0.000381576
0.000382274
0.000383128
0.000384147
0.000385336
0.000386691
0.000388196
0.000389803
0.000391411
0.00039287
0.000393966
0.000393777
0.000390916
0.000390373
0.000391251
0.000433419
0.000969066
0.00108174
0.00103394
0.0010708
0.00104293
0.00102457
0.00103806
0.0010718
0.00112116
0.00120103
0.00132642
0.00145638
0.00145403
0.00154062
0.000961227
0.000736618
-2.6601e-06
-2.54468e-06
-1.33976e-06
-1.9529e-06
-3.96059e-06
-4.52551e-06
-4.08343e-06
-3.2185e-06
-2.13074e-06
-9.59521e-07
1.91098e-07
1.26219e-06
2.22385e-06
3.06301e-06
3.77736e-06
4.37137e-06
4.85356e-06
5.23477e-06
5.52714e-06
5.74338e-06
5.89631e-06
5.99843e-06
6.06369e-06
6.10974e-06
6.1314e-06
6.0701e-06
6.18408e-06
7.47686e-06
6.51797e-06
0.000386384
0.000384928
0.00038386
0.000383073
0.000382434
0.000381935
0.000381575
0.000381345
0.000381244
0.000381273
0.000381435
0.000381738
0.000382192
0.00038281
0.000383607
0.0003846
0.000385808
0.000387249
0.000388941
0.000390898
0.000393122
0.000395586
0.000398201
0.000400879
0.000403623
0.000404337
0.000395652
0.000392317
0.000557463
0.00106235
0.00108624
0.00110156
0.00108531
0.00108368
0.00107212
0.00106595
0.00107512
0.00109891
0.00113601
0.00118802
0.00125046
0.00129629
0.00127937
0.00120111
0.000906583
0.000560854
-0.000113116
-3.78558e-06
-4.80825e-06
-7.02467e-06
-1.18361e-05
-1.24788e-05
-1.12577e-05
-9.55084e-06
-7.62241e-06
-5.67366e-06
-3.84267e-06
-2.18616e-06
-7.21956e-07
5.49416e-07
1.6371e-06
2.55558e-06
3.32185e-06
3.95393e-06
4.46994e-06
4.88771e-06
5.2244e-06
5.49627e-06
5.72076e-06
5.91897e-06
6.08683e-06
6.16149e-06
6.42753e-06
7.98731e-06
7.07903e-06
0.000388285
0.000386556
0.00038529
0.00038436
0.000383611
0.000383033
0.000382625
0.000382379
0.000382293
0.000382365
0.000382603
0.000383015
0.000383613
0.000384413
0.000385436
0.000386706
0.000388249
0.000390097
0.000392284
0.000394848
0.000397826
0.000401249
0.000405171
0.00040984
0.000416067
0.000422495
0.000404768
0.000495274
0.00192183
0.00137812
0.00121198
0.00115295
0.00112207
0.00110651
0.00109594
0.00109199
0.00109758
0.00111273
0.00113596
0.00116459
0.00119111
0.00119895
0.00116607
0.00107788
0.000903142
0.000685736
0.00043083
-0.000152382
-5.0602e-06
-1.07191e-05
-2.34177e-05
-2.27348e-05
-1.93848e-05
-1.62566e-05
-1.31986e-05
-1.03186e-05
-7.73277e-06
-5.46062e-06
-3.48728e-06
-1.78962e-06
-3.41004e-07
8.86327e-07
1.91971e-06
2.78529e-06
3.50775e-06
4.11028e-06
4.6145e-06
5.0404e-06
5.4088e-06
5.74416e-06
6.04351e-06
6.24032e-06
6.64277e-06
8.44151e-06
7.5792e-06
0.0003899
0.000387936
0.0003865
0.000385448
0.000384604
0.000383959
0.000383511
0.000383251
0.000383177
0.000383289
0.000383594
0.000384101
0.000384826
0.000385788
0.000387013
0.000388531
0.000390378
0.000392598
0.000395243
0.000398372
0.00040205
0.000406351
0.000411483
0.000417525
0.00042216
0.000428483
0.000498635
0.000885717
0.00137638
0.00131631
0.00123064
0.00117621
0.0011435
0.00112437
0.00111314
0.00110849
0.0011105
0.00111846
0.00113052
0.00114327
0.00115046
0.00114233
0.0011081
0.0010412
0.000942374
0.000848122
0.000846634
0.0012434
-0.00010649
-1.79232e-05
-4.63649e-05
-3.73136e-05
-2.89036e-05
-2.32665e-05
-1.86637e-05
-1.47156e-05
-1.13381e-05
-8.4515e-06
-5.9866e-06
-3.88687e-06
-2.10364e-06
-5.93768e-07
6.81326e-07
1.75632e-06
2.66257e-06