/*--------------------------------*- C++ -*----------------------------------*\
  =========                 |
  \\      /  F ield         | OpenFOAM: The Open Source CFD Toolbox
   \\    /   O peration     | Website:  https://openfoam.org
    \\  /    A nd           | Version:  7
     \\/     M anipulation  |
\*---------------------------------------------------------------------------*/
FoamFile
{
    version     2.0;
    format      ascii;
    class       surfaceScalarField;
    location    "15";
    object      phi;
}
// * * * * * * * * * * * * * * * * * * * * * * * * * * * * * * * * * * * * * //

dimensions      [0 3 -1 0 0 0 0];

internalField   nonuniform List<scalar> 
11100
(
1.93074e-13
7.35922e-14
1.32551e-13
6.05235e-14
9.56236e-14
3.69274e-14
7.29219e-14
2.27017e-14
5.84834e-14
1.44385e-14
4.89796e-14
9.50373e-15
4.2499e-14
6.48065e-15
3.79465e-14
4.55253e-15
3.46882e-14
3.25826e-15
3.23434e-14
2.34479e-15
3.06719e-14
1.6715e-15
2.95147e-14
1.15721e-15
2.87618e-14
7.52919e-16
2.8334e-14
4.27732e-16
2.81726e-14
1.61456e-16
2.82321e-14
-5.95236e-17
2.84767e-14
-2.44562e-16
2.88769e-14
-4.0019e-16
2.94078e-14
-5.30954e-16
3.00479e-14
-6.40037e-16
3.07775e-14
-7.29595e-16
3.15786e-14
-8.01096e-16
3.2434e-14
-8.55463e-16
3.33273e-14
-8.93312e-16
3.42423e-14
-9.14995e-16
3.51631e-14
-9.20816e-16
3.60741e-14
-9.11001e-16
3.69601e-14
-8.85919e-16
3.78061e-14
-8.45987e-16
3.85979e-14
-7.91893e-16
3.93224e-14
-7.24437e-16
3.99671e-14
-6.44746e-16
4.05212e-14
-5.54057e-16
4.09751e-14
-4.53925e-16
4.13211e-14
-3.45944e-16
4.1553e-14
-2.31973e-16
4.16669e-14
-1.13816e-16
4.16603e-14
6.53233e-18
4.15331e-14
1.27227e-16
4.12868e-14
2.46305e-16
4.09248e-14
3.62026e-16
4.04522e-14
4.7261e-16
3.98756e-14
5.76569e-16
3.92031e-14
6.72455e-16
3.8444e-14
7.59169e-16
3.76082e-14
8.35723e-16
3.67067e-14
9.01509e-16
3.57507e-14
9.5607e-16
3.47513e-14
9.99322e-16
3.372e-14
1.03133e-15
3.26675e-14
1.05247e-15
3.16043e-14
1.06324e-15
3.05399e-14
1.06439e-15
2.94832e-14
1.05671e-15
2.8442e-14
1.04117e-15
2.74233e-14
1.01876e-15
2.64327e-14
9.90552e-16
2.54751e-14
9.57605e-16
2.45541e-14
9.21043e-16
2.36721e-14
8.81949e-16
2.28307e-14
8.41465e-16
2.203e-14
8.0071e-16
2.12691e-14
7.60893e-16
2.05458e-14
7.23257e-16
1.98566e-14
6.89228e-16
1.91962e-14
6.6042e-16
1.85573e-14
6.38868e-16
1.79301e-14
6.27223e-16
1.73007e-14
6.2937e-16
1.66495e-14
6.51219e-16
1.59479e-14
7.01589e-16
1.51529e-14
7.9501e-16
1.41867e-14
9.6613e-16
1.2912e-14
1.2747e-15
1.65319e-15
2.69388e-13
7.08706e-14
2.40848e-13
8.90637e-14
2.05534e-13
7.22415e-14
1.74581e-13
5.36547e-14
1.50046e-13
3.89736e-14
1.3129e-13
2.82597e-14
1.17128e-13
2.06427e-14
1.0648e-13
1.52008e-14
9.85061e-14
1.12318e-14
9.25888e-14
8.2621e-15
8.82773e-14
5.98295e-15
8.52422e-14
4.19231e-15
8.32388e-14
2.75629e-15
8.2082e-14
1.58455e-15
8.16285e-14
6.14945e-16
8.17649e-14
-1.95897e-16
8.2399e-14
-8.78645e-16
8.34539e-14
-1.45508e-15
8.48636e-14
-1.94069e-15
8.65699e-14
-2.34635e-15
8.852e-14
-2.67967e-15
9.06647e-14
-2.94576e-15
9.29572e-14
-3.14804e-15
9.53526e-14
-3.28871e-15
9.78069e-14
-3.36927e-15
1.00277e-13
-3.39084e-15
1.0272e-13
-3.35452e-15
1.05096e-13
-3.26164e-15
1.07364e-13
-3.11405e-15
1.09487e-13
-2.91417e-15
1.11427e-13
-2.66524e-15
1.13154e-13
-2.37121e-15
1.14637e-13
-2.03688e-15
1.1585e-13
-1.66769e-15
1.16774e-13
-1.26975e-15
1.17392e-13
-8.49541e-16
1.17692e-13
-4.13966e-16
1.17668e-13
3.00356e-17
1.1732e-13
4.75393e-16
1.16651e-13
9.1528e-16
1.1567e-13
1.34301e-15
1.1439e-13
1.75242e-15
1.12829e-13
2.13773e-15
1.11008e-13
2.49397e-15
1.0895e-13
2.81679e-15
1.06683e-13
3.10282e-15
1.04235e-13
3.34954e-15
1.01636e-13
3.55546e-15
9.8915e-14
3.71994e-15
9.6103e-14
3.84335e-15
9.32287e-14
3.92681e-15
9.03197e-14
3.9722e-15
8.74021e-14
3.98199e-15
8.44996e-14
3.9592e-15
8.16336e-14
3.90716e-15
7.88229e-14
3.82954e-15
7.60833e-14
3.73015e-15
7.34279e-14
3.61298e-15
7.08669e-14
3.48202e-15
6.84075e-14
3.34138e-15
6.60538e-14
3.19514e-15
6.3807e-14
3.04752e-15
6.1665e-14
2.90284e-15
5.96226e-14
2.76566e-15
5.76709e-14
2.64093e-15
5.57971e-14
2.53424e-15
5.39839e-14
2.45213e-15
5.22084e-14
2.40267e-15
5.04416e-14
2.39623e-15
4.86462e-14
2.4466e-15
4.67762e-14
2.57154e-15
4.4777e-14
2.79428e-15
4.25938e-14
3.14925e-15
4.02141e-14
3.6544e-15
4.13663e-15
2.79701e-13
5.78359e-14
2.75726e-13
9.30395e-14
2.57561e-13
9.04062e-14
2.34747e-13
7.6469e-14
2.12564e-13
6.11563e-14
1.93138e-13
4.76858e-14
1.77021e-13
3.67595e-14
1.64075e-13
2.8147e-14
1.53918e-13
2.13883e-14
1.46131e-13
1.60489e-14
1.40332e-13
1.17822e-14
1.36197e-13
8.32734e-15
1.3346e-13
5.49306e-15
1.31905e-13
3.14017e-15
1.31352e-13
1.16742e-15
1.31655e-13
-4.99027e-16
1.3269e-13
-1.91303e-15
1.34349e-13
-3.1138e-15
1.36538e-13
-4.12968e-15
1.39172e-13
-4.98095e-15
1.42174e-13
-5.6818e-15
1.4547e-13
-6.24196e-15
1.4899e-13
-6.6679e-15
1.52666e-13
-6.9639e-15
1.56429e-13
-7.13283e-15
1.60215e-13
-7.177e-15
1.63959e-13
-7.09867e-15
1.67599e-13
-6.90076e-15
1.71072e-13
-6.58712e-15
1.7432e-13
-6.16301e-15
1.7729e-13
-5.63519e-15
1.79931e-13
-5.01216e-15
1.82198e-13
-4.30395e-15
1.84053e-13
-3.52216e-15
1.85463e-13
-2.67951e-15
1.86403e-13
-1.78981e-15
1.86856e-13
-8.67376e-16
1.86813e-13
7.30091e-17
1.86272e-13
1.01668e-15
1.85238e-13
1.9491e-15
1.83725e-13
2.85641e-15
1.81752e-13
3.72542e-15
1.79345e-13
4.5442e-15
1.76537e-13
5.30201e-15
1.73364e-13
5.98987e-15
1.69867e-13
6.60048e-15
1.66088e-13
7.12856e-15
1.62072e-13
7.57078e-15
1.57866e-13
7.92583e-15
1.53515e-13
8.19426e-15
1.49064e-13
8.37839e-15
1.44554e-13
8.48203e-15
1.40026e-13
8.51035e-15
1.35515e-13
8.4695e-15
1.31056e-13
8.36653e-15
1.26677e-13
8.20902e-15
1.22402e-13
8.00502e-15
1.18252e-13
7.76281e-15
1.14243e-13
7.49085e-15
1.10387e-13
7.19766e-15
1.0669e-13
6.89187e-15
1.03155e-13
6.58219e-15
9.97806e-14
6.27758e-15
9.6559e-14
5.98727e-15
9.34788e-14
5.72112e-15
9.05232e-14
5.48983e-15
8.767e-14
5.30534e-15
8.48913e-14
5.18135e-15
8.21537e-14
5.13381e-15
7.94192e-14
5.18114e-15
7.66476e-14
5.34311e-15
7.38036e-14
5.6383e-15
7.08733e-14
6.07952e-15
6.78945e-14
6.63319e-15
7.08025e-15
2.7859e-13
4.59126e-14
2.84636e-13
8.69938e-14
2.79495e-13
9.55468e-14
2.67155e-13
8.8809e-14
2.51849e-13
7.64624e-14
2.36355e-13
6.31801e-14
2.22177e-13
5.09375e-14
2.09971e-13
4.03528e-14
1.99911e-13
3.1448e-14
1.91931e-13
2.40288e-14
1.85862e-13
1.78514e-14
1.81502e-13
1.26874e-14
1.78651e-13
8.34441e-15
1.77123e-13
4.66816e-15
1.76752e-13
1.53837e-15
1.7739e-13
-1.13741e-15
1.78906e-13
-3.42929e-15
1.81182e-13
-5.38984e-15
1.84111e-13
-7.05786e-15
1.87591e-13
-8.46144e-15
1.9153e-13
-9.62047e-15
1.95836e-13
-1.05485e-14
2.00423e-13
-1.12547e-14
2.05204e-13
-1.17448e-14
2.10094e-13
-1.20229e-14
2.15009e-13
-1.20923e-14
2.19867e-13
-1.19564e-14
2.24586e-13
-1.16199e-14
2.29088e-13
-1.1089e-14
2.33298e-13
-1.03726e-14
2.37145e-13
-9.48204e-15
2.40564e-13
-8.43141e-15
2.43498e-13
-7.2377e-15
2.45896e-13
-5.92024e-15
2.47717e-13
-4.50057e-15
2.48929e-13
-3.00166e-15
2.49509e-13
-1.44767e-15
2.49445e-13
1.36831e-16
2.48735e-13
1.72713e-15
2.47385e-13
3.29907e-15
2.45412e-13
4.82926e-15
2.42841e-13
6.2958e-15
2.39707e-13
7.67844e-15
2.3605e-13
8.95934e-15
2.31917e-13
1.01232e-14
2.27359e-13
1.11578e-14
2.22434e-13
1.2054e-14
2.17198e-13
1.28064e-14
2.11712e-13
1.34125e-14
2.06033e-13
1.38732e-14
2.00219e-13
1.41922e-14
1.94325e-13
1.43759e-14
1.88402e-13
1.44328e-14
1.82499e-13
1.43731e-14
1.76657e-13
1.42085e-14
1.70914e-13
1.39518e-14
1.65303e-13
1.36162e-14
1.5985e-13
1.32156e-14
1.54577e-13
1.2764e-14
1.49499e-13
1.22757e-14
1.44626e-13
1.17648e-14
1.39963e-13
1.12457e-14
1.35507e-13
1.07329e-14
1.31253e-13
1.02413e-14
1.27188e-13
9.78606e-15
1.23295e-13
9.38346e-15
1.19549e-13
9.05058e-15
1.15925e-13
8.80581e-15
1.1239e-13
8.66855e-15
1.08913e-13
8.65836e-15
1.05464e-13
8.79193e-15
1.02025e-13
9.07766e-15
9.8598e-14
9.50638e-15
9.52162e-14
1.00151e-14
1.03941e-14
2.7579e-13
3.67893e-14
2.84969e-13
7.78143e-14
2.87425e-13
9.30913e-14
2.83444e-13
9.27897e-14
2.75302e-13
8.46048e-14
2.6523e-13
7.32523e-14
2.54862e-13
6.13056e-14
2.45212e-13
5.00024e-14
2.36826e-13
3.98337e-14
2.29944e-13
3.0911e-14
2.24623e-13
2.31728e-14
2.20819e-13
1.64913e-14
2.18438e-13
1.07252e-14
2.17364e-13
5.74246e-15
2.17473e-13
1.42959e-15
2.18642e-13
-2.30685e-15
2.20754e-13
-5.54128e-15
2.23696e-13
-8.33145e-15
2.27359e-13
-1.0721e-14
2.31639e-13
-1.27418e-14
2.36435e-13
-1.44166e-14
2.41648e-13
-1.57608e-14
2.47177e-13
-1.67844e-14
2.52926e-13
-1.74936e-14
2.58796e-13
-1.78927e-14
2.64689e-13
-1.79851e-14
2.70507e-13
-1.77751e-14
2.76156e-13
-1.72688e-14
2.81542e-13
-1.64752e-14
2.86577e-13
-1.54069e-14
2.91175e-13
-1.40804e-14
2.9526e-13
-1.25168e-14
2.98764e-13
-1.07411e-14
3.01626e-13
-8.78204e-15
3.03796e-13
-6.67139e-15
3.05238e-13
-4.44336e-15
3.05924e-13
-2.13355e-15
3.05839e-13
2.21595e-16
3.04981e-13
2.58572e-15
3.03357e-13
4.923e-15
3.00987e-13
7.19901e-15
2.97902e-13
9.38117e-15
2.9414e-13
1.14396e-14
2.89752e-13
1.33477e-14
2.84793e-13
1.50827e-14
2.79324e-13
1.66264e-14
2.73413e-13
1.79653e-14
2.67128e-13
1.9091e-14
2.60541e-13
1.99999e-14
2.5372e-13
2.06932e-14
2.46736e-13
2.11764e-14
2.39653e-13
2.14588e-14
2.32533e-13
2.1553e-14
2.25432e-13
2.1474e-14
2.18402e-13
2.1239e-14
2.11487e-13
2.08668e-14
2.04726e-13
2.03769e-14
1.98152e-13
1.97897e-14
1.9179e-13
1.91257e-14
1.8566e-13
1.84057e-14
1.79775e-13
1.76502e-14
1.7414e-13
1.68801e-14
1.68757e-13
1.6116e-14
1.6362e-13
1.53787e-14
1.58717e-13
1.46891e-14
1.54031e-13
1.40687e-14
1.49543e-13
1.35392e-14
1.45226e-13
1.31224e-14
1.41055e-13
1.28397e-14
1.37004e-13
1.27097e-14
1.33051e-13
1.27445e-14
1.29185e-13
1.29433e-14
1.25409e-13
1.32827e-14
1.21734e-13
1.36902e-14
1.39861e-14
2.73428e-13
3.0028e-14
2.82949e-13
6.82928e-14
2.89286e-13
8.6755e-14
2.90971e-13
9.11042e-14
2.88715e-13
8.68616e-14
2.83887e-13
7.80802e-14
2.7781e-13
6.73821e-14
2.71504e-13
5.63083e-14
2.65659e-13
4.56788e-14
2.60695e-13
3.58747e-14
2.56839e-13
2.7029e-14
2.54186e-13
1.91442e-14
2.5275e-13
1.21616e-14
2.52493e-13
5.99968e-15
2.53348e-13
5.74038e-16
2.55234e-13
-4.19238e-15
2.58058e-13
-8.36529e-15
2.61724e-13
-1.19979e-14
2.66135e-13
-1.51315e-14
2.7119e-13
-1.77966e-14
2.76788e-13
-2.00145e-14
2.82826e-13
-2.17993e-14
2.89201e-13
-2.31594e-14
2.95807e-13
-2.40996e-14
3.02537e-13
-2.46226e-14
3.09283e-13
-2.47311e-14
3.15937e-13
-2.44291e-14
3.22392e-13
-2.37236e-14
3.28543e-13
-2.26261e-14
3.34289e-13
-2.11529e-14
3.39535e-13
-1.93266e-14
3.44194e-13
-1.71755e-14
3.48186e-13
-1.47339e-14
3.51446e-13
-1.20412e-14
3.53915e-13
-9.14111e-15
3.55552e-13
-6.08044e-15
3.56327e-13
-2.90802e-15
3.56222e-13
3.26521e-16
3.55234e-13
3.57341e-15
3.53373e-13
6.78393e-15
3.50661e-13
9.91091e-15
3.47133e-13
1.29099e-14
3.42832e-13
1.57398e-14
3.37816e-13
1.8364e-14
3.32148e-13
2.07513e-14
3.25897e-13
2.28765e-14
3.19142e-13
2.47209e-14
3.1196e-13
2.6273e-14
3.04432e-13
2.75278e-14
2.96638e-13
2.8487e-14
2.88657e-13
2.9158e-14
2.80562e-13
2.95538e-14
2.72423e-13
2.96914e-14
2.64306e-13
2.95915e-14
2.56267e-13
2.92777e-14
2.48359e-13
2.87753e-14
2.40625e-13
2.8111e-14
2.33102e-13
2.73123e-14
2.25821e-13
2.64072e-14
2.18803e-13
2.54234e-14
2.12064e-13
2.43886e-14
2.05614e-13
2.33304e-14
1.99454e-13
2.22759e-14
1.93581e-13
2.12519e-14
1.87985e-13
2.02851e-14
1.82652e-13
1.94018e-14
1.77563e-13
1.86278e-14
1.72698e-13
1.79877e-14
1.68034e-13
1.75038e-14
1.6355e-13
1.71936e-14
1.59229e-13
1.70657e-14
1.55059e-13
1.71135e-14
1.51034e-13
1.73079e-14
1.47145e-13
1.75794e-14
1.77842e-14
2.71798e-13
2.48965e-14
2.80711e-13
5.93804e-14
2.88771e-13
7.86942e-14
2.93958e-13
8.59174e-14
2.96024e-13
8.47955e-14
2.95583e-13
7.85209e-14
2.93514e-13
6.94516e-14
2.90648e-13
5.91739e-14
2.87653e-13
4.86747e-14
2.85006e-13
3.85211e-14
2.83027e-13
2.90085e-14
2.81905e-13
2.0266e-14
2.81739e-13
1.23269e-14
2.82565e-13
5.17424e-15
2.84371e-13
-1.2325e-15
2.8712e-13
-6.94087e-15
2.90751e-13
-1.19968e-14
2.95194e-13
-1.64401e-14
3.00364e-13
-2.03024e-14
3.06175e-13
-2.3607e-14
3.1253e-13
-2.63694e-14
3.19329e-13
-2.85987e-14
3.26468e-13
-3.02988e-14
3.33839e-13
-3.14703e-14
3.41329e-13
-3.21128e-14
3.48824e-13
-3.22261e-14
3.56208e-13
-3.1813e-14
3.63365e-13
-3.08804e-14
3.7018e-13
-2.94413e-14
3.76543e-13
-2.75162e-14
3.8235e-13
-2.51332e-14
3.87504e-13
-2.2329e-14
3.91918e-13
-1.91481e-14
3.95518e-13
-1.56417e-14
3.98244e-13
-1.18667e-14
4.00048e-13
-7.88413e-15
4.00897e-13
-3.75714e-15
4.00773e-13
4.49862e-16
3.99674e-13
4.67279e-15
3.97609e-13
8.84855e-15
3.94604e-13
1.29163e-14
3.90696e-13
1.68183e-14
3.85934e-13
2.05011e-14
3.80382e-13
2.39169e-14
3.74108e-13
2.70249e-14
3.67193e-13
2.9792e-14
3.59719e-13
3.21941e-14
3.51776e-13
3.42159e-14
3.43453e-13
3.58512e-14
3.34838e-13
3.71021e-14
3.26017e-13
3.79787e-14
3.17073e-13
3.84978e-14
3.08083e-13
3.86817e-14
2.99117e-13
3.85574e-14
2.90239e-13
3.81554e-14
2.81506e-13
3.75084e-14
2.72966e-13
3.6651e-14
2.6466e-13
3.56183e-14
2.56621e-13
3.44461e-14
2.48875e-13
3.31699e-14
2.41439e-13
3.18247e-14
2.34324e-13
3.0445e-14
2.27535e-13
2.90647e-14
2.2107e-13
2.77166e-14
2.14923e-13
2.64329e-14
2.0908e-13
2.52446e-14
2.03526e-13
2.41812e-14
1.98244e-13
2.32697e-14
1.93215e-13
2.25336e-14
1.88418e-13
2.19899e-14
1.83838e-13
2.16457e-14
1.79459e-13
2.1493e-14
1.75263e-13
2.15033e-14
1.71226e-13
2.16171e-14
2.17264e-14
2.7073e-13
2.08334e-14
2.78823e-13
5.12868e-14
2.87478e-13
7.00394e-14
2.94685e-13
7.87101e-14
2.99721e-13
7.976e-14
3.02664e-13
7.55779e-14
3.03983e-13
6.81328e-14
3.04261e-13
5.8896e-14
3.04047e-13
4.88883e-14
3.03794e-13
3.87741e-14
3.03842e-13
2.89601e-14
3.04431e-13
1.96777e-14
3.05713e-13
1.10449e-14
3.07776e-13
3.11062e-15
3.10659e-13
-4.11569e-15
3.14363e-13
-1.06447e-14
3.18861e-13
-1.6495e-14
3.24107e-13
-2.16859e-14
3.30038e-13
-2.62335e-14
3.3658e-13
-3.01487e-14
3.43648e-13
-3.34369e-14
3.51147e-13
-3.60983e-14
3.58977e-13
-3.81291e-14
3.6703e-13
-3.95234e-14
3.75193e-13
-4.02748e-14
3.83345e-13
-4.03788e-14
3.91367e-13
-3.98348e-14
3.99135e-13
-3.86485e-14
4.06528e-13
-3.68339e-14
4.13426e-13
-3.44146e-14
4.19718e-13
-3.14248e-14
4.25298e-13
-2.79097e-14
4.30075e-13
-2.39249e-14
4.33968e-13
-1.95347e-14
4.36912e-13
-1.48108e-14
4.38857e-13
-9.82926e-15
4.39769e-13
-4.66923e-15
4.3963e-13
5.89475e-16
4.38435e-13
5.86725e-15
4.36198e-13
1.10861e-14
4.32944e-13
1.61704e-14
4.28714e-13
2.10481e-14
4.23563e-13
2.56523e-14
4.17556e-13
2.9923e-14
4.10773e-13
3.38085e-14
4.03297e-13
3.72674e-14
3.95222e-13
4.02691e-14
3.86644e-13
4.27947e-14
3.77658e-13
4.48366e-14
3.68363e-13
4.63978e-14
3.5885e-13
4.74913e-14
3.49209e-13
4.81385e-14
3.39523e-13
4.83677e-14
3.29868e-13
4.82127e-14
3.20312e-13
4.77116e-14
3.10915e-13
4.69053e-14
3.01729e-13
4.58365e-14
2.92799e-13
4.45487e-14
2.84159e-13
4.30859e-14
2.75838e-13
4.14913e-14
2.67855e-13
3.98078e-14
2.60223e-13
3.80769e-14
2.52948e-13
3.63391e-14
2.46032e-13
3.46334e-14
2.39467e-13
3.29971e-14
2.33246e-13
3.1466e-14
2.27354e-13
3.00729e-14
2.21776e-13
2.88478e-14
2.16494e-13
2.78155e-14
2.1149e-13
2.6994e-14
2.06745e-13
2.63912e-14
2.02236e-13
2.60012e-14
1.97939e-13
2.58003e-14
1.93814e-13
2.57425e-14
2.57539e-14
2.70022e-13
1.74777e-14
2.77342e-13
4.39668e-14
2.86038e-13
6.13443e-14
2.94325e-13
7.04225e-14
3.01299e-13
7.27858e-14
3.06713e-13
7.01646e-14
3.10718e-13
6.41272e-14
3.13662e-13
5.59521e-14
3.15945e-13
4.66053e-14
3.17944e-13
3.67751e-14
3.19976e-13
2.69281e-14
3.22288e-13
1.73657e-14
3.2506e-13
8.27343e-15
3.28412e-13
-2.4121e-16
3.32416e-13
-8.12027e-15
3.37107e-13
-1.53354e-14
3.42486e-13
-2.18743e-14
3.48532e-13
-2.77315e-14
3.55202e-13
-3.29032e-14
3.62437e-13
-3.73837e-14
3.70164e-13
-4.11646e-14
3.783e-13
-4.42339e-14
3.86748e-13
-4.65773e-14
3.95404e-13
-4.81792e-14
4.04154e-13
-4.90253e-14
4.1288e-13
-4.9104e-14
4.21455e-13
-4.84099e-14
4.29752e-13
-4.69457e-14
4.37643e-13
-4.4725e-14
4.45002e-13
-4.1774e-14
4.5171e-13
-3.81328e-14
4.57657e-13
-3.38558e-14
4.62742e-13
-2.90103e-14
4.66883e-13
-2.36754e-14
4.7001e-13
-1.79385e-14
4.72074e-13
-1.18927e-14
4.73038e-13
-5.63348e-15
4.72885e-13
7.42737e-16
4.71611e-13
7.14079e-15
4.6923e-13
1.3467e-14
4.6577e-13
1.96306e-14
4.61274e-13
2.55443e-14
4.558e-13
3.11267e-14
4.49419e-13
3.63041e-14
4.42214e-13
4.10134e-14
4.34277e-13
4.52036e-14
4.25709e-13
4.88374e-14
4.16612e-13
5.18918e-14
4.07091e-13
5.4358e-14
3.97248e-13
5.62407e-14
3.87183e-13
5.7556e-14
3.76991e-13
5.83308e-14
3.66759e-13
5.86e-14
3.56566e-13
5.84049e-14
3.46486e-13
5.77921e-14
3.3658e-13
5.68108e-14
3.26904e-13
5.55126e-14
3.17503e-13
5.39497e-14
3.08415e-13
5.21744e-14
2.99668e-13
5.02383e-14
2.91284e-13
4.81916e-14
2.83278e-13
4.60833e-14
2.75656e-13
4.39604e-14
2.68422e-13
4.18677e-14
2.61571e-13
3.98482e-14
2.55095e-13
3.79416e-14
2.48983e-13
3.61849e-14
2.4322e-13
3.46108e-14
2.37789e-13
3.32466e-14
2.32671e-13
3.21124e-14
2.27843e-13
3.12192e-14
2.23278e-13
3.05656e-14
2.18943e-13
3.01354e-14
2.14789e-13
2.98971e-14
2.98091e-14
2.69537e-13
1.46072e-14
2.76191e-13
3.73131e-14
2.84668e-13
5.28674e-14
2.93456e-13
6.16342e-14
3.01628e-13
6.46142e-14
3.0876e-13
6.3032e-14
3.14791e-13
5.80964e-14
3.19873e-13
5.08701e-14
3.24263e-13
4.22158e-14
3.28243e-13
3.27942e-14
3.32083e-13
2.30887e-14
3.36009e-13
1.34394e-14
3.40204e-13
4.07849e-15
3.44803e-13
-4.84021e-15
3.49899e-13
-1.32165e-14
3.55549e-13
-2.09852e-14
3.61777e-13
-2.81027e-14
3.68583e-13
-3.45372e-14
3.75943e-13
-4.02625e-14
3.83813e-13
-4.52539e-14
3.92134e-13
-4.94859e-14
4.00832e-13
-5.29319e-14
4.09819e-13
-5.55641e-14
4.18994e-13
-5.7355e-14
4.28249e-13
-5.82796e-14
4.37462e-13
-5.83173e-14
4.46508e-13
-5.74554e-14
4.55254e-13
-5.56919e-14
4.63568e-13
-5.30386e-14
4.71317e-13
-4.95234e-14
4.78376e-13
-4.51919e-14
4.84628e-13
-4.01079e-14
4.8997e-13
-3.43523e-14
4.94314e-13
-2.80197e-14
4.97591e-13
-2.12156e-14
4.9975e-13
-1.40509e-14
5.00755e-13
-6.63913e-15
5.00591e-13
9.07197e-16
4.99255e-13
8.47699e-15
4.9676e-13
1.59615e-14
4.93137e-13
2.32542e-14
4.88429e-13
3.02522e-14
4.82697e-13
3.68582e-14
4.76017e-13
4.29841e-14
4.68477e-13
4.85533e-14
4.60176e-13
5.35048e-14
4.5122e-13
5.77937e-14
4.41718e-13
6.13933e-14
4.31783e-13
6.42937e-14
4.21522e-13
6.65014e-14
4.11041e-13
6.80372e-14
4.00438e-13
6.89336e-14
3.89805e-13
6.92331e-14
3.79224e-13
6.89857e-14
3.6877e-13
6.82462e-14
3.58507e-13
6.70735e-14
3.48492e-13
6.55281e-14
3.3877e-13
6.36712e-14
3.29381e-13
6.15636e-14
3.20354e-13
5.92651e-14
3.11712e-13
5.68338e-14
3.03469e-13
5.43258e-14
2.95635e-13
5.17944e-14
2.88212e-13
4.92906e-14
2.81198e-13
4.68623e-14
2.74586e-13
4.45539e-14
2.68365e-13
4.24063e-14
2.6252e-13
4.04554e-14
2.57035e-13
3.87319e-14
2.51888e-13
3.72593e-14
2.47054e-13
3.6053e-14
2.42502e-13
3.5118e-14
2.3819e-13
3.44471e-14
2.34064e-13
3.40234e-14
3.38352e-14
2.69188e-13
1.20862e-14
2.75278e-13
3.1223e-14
2.8342e-13
4.47255e-14
2.92351e-13
5.27028e-14
3.01197e-13
5.5768e-14
3.0946e-13
5.47692e-14
3.16942e-13
5.06148e-14
3.23652e-13
4.41594e-14
3.29726e-13
3.61423e-14
3.35354e-13
2.71656e-14
3.40745e-13
1.7698e-14
3.46093e-13
8.09197e-15
3.51565e-13
-1.39375e-15
3.57297e-13
-1.05728e-14
3.63392e-13
-1.93113e-14
3.6992e-13
-2.75126e-14
3.76921e-13
-3.51037e-14
3.84411e-13
-4.20271e-14
3.92382e-13
-4.82336e-14
4.00805e-13
-5.36777e-14
4.09635e-13
-5.83156e-14
4.18807e-13
-6.21038e-14
4.28242e-13
-6.49989e-14
4.37846e-13
-6.69593e-14
4.47513e-13
-6.79468e-14
4.57126e-13
-6.79296e-14
4.66556e-13
-6.68853e-14
4.75669e-13
-6.48052e-14
4.84328e-13
-6.16974e-14
4.92395e-13
-5.75904e-14
4.99738e-13
-5.2535e-14
5.06235e-13
-4.66051e-14
5.11779e-13
-3.9896e-14
5.1628e-13
-3.25208e-14
5.19669e-13
-2.46046e-14
5.21896e-13
-1.62784e-14
5.22931e-13
-7.6738e-15
5.22758e-13
1.08037e-15
5.21376e-13
9.85866e-15
5.188e-13
1.85378e-14
5.15058e-13
2.69963e-14
5.10195e-13
3.51149e-14
5.04274e-13
4.27795e-14
4.97373e-13
4.98851e-14
4.89585e-13
5.63411e-14
4.81015e-13
6.20745e-14
4.71776e-13
6.7033e-14
4.61984e-13
7.11855e-14
4.51755e-13
7.45219e-14
4.41206e-13
7.70513e-14
4.30443e-13
7.87996e-14
4.1957e-13
7.98065e-14
4.08681e-13
8.01229e-14
3.97859e-13
7.98076e-14
3.87179e-13
7.89253e-14
3.76709e-13
7.75441e-14
3.66503e-13
7.57341e-14
3.56609e-13
7.35655e-14
3.47064e-13
7.11079e-14
3.379e-13
6.84294e-14
3.29138e-13
6.55957e-14
3.20794e-13
6.26697e-14
3.12877e-13
5.97115e-14
3.0539e-13
5.67776e-14
2.98332e-13
5.3921e-14
2.91694e-13
5.1191e-14
2.85469e-13
4.86322e-14
2.79639e-13
4.62846e-14
2.74189e-13
4.41827e-14
2.69094e-13
4.23543e-14
2.64326e-13
4.08204e-14
2.59851e-13
3.95934e-14
2.55622e-13
3.86756e-14
2.51581e-13
3.80645e-14
3.77766e-14
2.68922e-13
9.8312e-15
2.74528e-13
2.56168e-14
2.82282e-13
3.69717e-14
2.9113e-13
4.38541e-14
3.00282e-13
4.66165e-14
3.09221e-13
4.58305e-14
3.17674e-13
4.21618e-14
3.25553e-13
3.62799e-14
3.32897e-13
2.87982e-14
3.39818e-13
2.02445e-14
3.46464e-13
1.10526e-14
3.52988e-13
1.56753e-15
3.59537e-13
-7.9424e-15
3.66236e-13
-1.72714e-14
3.73186e-13
-2.62618e-14
3.80465e-13
-3.47911e-14
3.88122e-13
-4.27614e-14
3.96186e-13
-5.00913e-14
4.04662e-13
-5.67092e-14
4.13534e-13
-6.25491e-14
4.22766e-13
-6.75478e-14
4.32305e-13
-7.16435e-14
4.42083e-13
-7.47761e-14
4.52011e-13
-7.68876e-14
4.61989e-13
-7.79248e-14
4.71901e-13
-7.78421e-14
4.81621e-13
-7.66053e-14
4.91013e-13
-7.41964e-14
4.99933e-13
-7.06178e-14
5.08239e-13
-6.58969e-14
5.15794e-13
-6.00895e-14
5.22469e-13
-5.328e-14
5.28154e-13
-4.55807e-14
5.32758e-13
-3.71253e-14
5.36216e-13
-2.80622e-14
5.38482e-13
-1.85445e-14
5.39531e-13
-8.72249e-15
5.39351e-13
1.26037e-15
5.37943e-13
1.12663e-14
5.3532e-13
2.11603e-14
5.3151e-13
3.08068e-14
5.26555e-13
4.00701e-14
5.20517e-13
4.88171e-14
5.13478e-13
5.69245e-14
5.05534e-13
6.42848e-14
4.96796e-13
7.08123e-14
4.87383e-13
7.6446e-14
4.77418e-13
8.1151e-14
4.67022e-13
8.49175e-14
4.56315e-13
8.77582e-14
4.45409e-13
8.97054e-14
4.34409e-13
9.0807e-14
4.23409e-13
9.11232e-14
4.12494e-13
9.07225e-14
4.01739e-13
8.96798e-14
3.9121e-13
8.80732e-14
3.80962e-13
8.59821e-14
3.71041e-13
8.34863e-14
3.61485e-13
8.06639e-14
3.52324e-13
7.75911e-14
3.43578e-13
7.43411e-14
3.35264e-13
7.09839e-14
3.2739e-13
6.75856e-14
3.19959e-13
6.42085e-14
3.12969e-13
6.09107e-14
3.06414e-13
5.77459e-14
3.00283e-13
5.47632e-14
2.94562e-13
5.20066e-14
2.89229e-13
4.95149e-14
2.84263e-13
4.73211e-14
2.79631e-13
4.54522e-14
2.75295e-13
4.39287e-14
2.71209e-13
4.27623e-14
2.67309e-13
4.19645e-14
4.15782e-14
2.68708e-13
7.79025e-15
2.73886e-13
2.04382e-14
2.81225e-13
2.9633e-14
2.89842e-13
3.52374e-14
2.99032e-13
3.74258e-14
3.08297e-13
3.65657e-14
3.17328e-13
3.31313e-14
3.25974e-13
2.76333e-14
3.34206e-13
2.05669e-14
3.42069e-13
1.23809e-14
3.49659e-13
3.46283e-15
3.5709e-13
-5.86332e-15
3.6448e-13
-1.53329e-14
3.71941e-13
-2.47319e-14
3.79566e-13
-3.38875e-14
3.87434e-13
-4.26586e-14
3.95599e-13
-5.09267e-14
4.04098e-13
-5.85897e-14
4.12944e-13
-6.55552e-14
4.22132e-13
-7.17376e-14
4.31639e-13
-7.70543e-14
4.4142e-13
-8.14251e-14
4.51416e-13
-8.47717e-14
4.61547e-13
-8.70187e-14
4.71718e-13
-8.8096e-14
4.81818e-13
-8.7942e-14
4.91721e-13
-8.65082e-14
5.01289e-13
-8.37644e-14
5.10376e-13
-7.9705e-14
5.18834e-13
-7.43545e-14
5.26517e-13
-6.77725e-14
5.33292e-13
-6.00555e-14
5.39046e-13
-5.13345e-14
5.4369e-13
-4.1769e-14
5.47162e-13
-3.15348e-14
5.49428e-13
-2.08106e-14
5.50471e-13
-9.76534e-15
5.50286e-13
1.44542e-15
5.48876e-13
1.26768e-14
5.4625e-13
2.37862e-14
5.4243e-13
3.46268e-14
5.37454e-13
4.50456e-14
5.31383e-13
5.48886e-14
5.24297e-13
6.40102e-14
5.16298e-13
7.2284e-14
5.07501e-13
7.96092e-14
4.98031e-13
8.59156e-14
4.88018e-13
9.11647e-14
4.77587e-13
9.53479e-14
4.66862e-13
9.84831e-14
4.55957e-13
1.0061e-13
4.44977e-13
1.01787e-13
4.34017e-13
1.02083e-13
4.23162e-13
1.01578e-13
4.12484e-13
1.00358e-13
4.02047e-13
9.85096e-14
3.91906e-13
9.61232e-14
3.82105e-13
9.32873e-14
3.7268e-13
9.00888e-14
3.63659e-13
8.66117e-14
3.55064e-13
8.29366e-14
3.46908e-13
7.914e-14
3.39199e-13
7.52944e-14
3.3194e-13
7.14673e-14
3.25129e-13
6.77218e-14
3.18759e-13
6.41163e-14
3.12818e-13
6.07041e-14
3.07291e-13
5.75337e-14
3.02157e-13
5.46485e-14
2.97391e-13
5.20867e-14
2.92962e-13
4.98819e-14
2.88828e-13
4.80626e-14
2.8494e-13
4.665e-14
2.81236e-13
4.56686e-14
4.51862e-14
2.68526e-13
5.9312e-15
2.73313e-13
1.56508e-14
2.80219e-13
2.27272e-14
2.88498e-13
2.69585e-14
2.9753e-13
2.83933e-14
3.06848e-13
2.72477e-14
3.16134e-13
2.38455e-14
3.25203e-13
1.85644e-14
3.33976e-13
1.17939e-14
3.42451e-13
3.90552e-15
3.50679e-13
-4.76434e-15
3.58736e-13
-1.39212e-14
3.66717e-13
-2.33131e-14
3.74712e-13
-3.2727e-14
3.82807e-13
-4.19827e-14
3.91075e-13
-5.09264e-14
3.99572e-13
-5.94242e-14
4.08339e-13
-6.73564e-14
4.17397e-13
-7.46128e-14
4.26748e-13
-8.10893e-14
4.36379e-13
-8.6685e-14
4.46255e-13
-9.13012e-14
4.56325e-13
-9.48413e-14
4.66518e-13
-9.72116e-14
4.76745e-13
-9.83237e-14
4.86901e-13
-9.80979e-14
4.96862e-13
-9.64689e-14
5.06489e-13
-9.33914e-14
5.15633e-13
-8.88486e-14
5.24138e-13
-8.28595e-14
5.31851e-13
-7.54864e-14
5.38634e-13
-6.68383e-14
5.4437e-13
-5.70697e-14
5.48972e-13
-4.63711e-14
5.5239e-13
-3.49535e-14
5.54605e-13
-2.30257e-14
5.55616e-13
-1.07759e-14
5.55427e-13
1.63427e-15
5.54043e-13
1.40609e-14
5.51467e-13
2.63621e-14
5.4771e-13
3.83837e-14
5.42801e-13
4.9955e-14
5.36793e-13
6.08967e-14
5.29766e-13
7.10366e-14
5.21826e-13
8.02246e-14
5.13092e-13
8.8343e-14
5.03696e-13
9.53116e-14
4.93772e-13
1.01089e-13
4.83451e-13
1.05669e-13
4.72858e-13
1.09076e-13
4.62108e-13
1.1136e-13
4.51305e-13
1.12589e-13
4.40544e-13
1.12845e-13
4.29905e-13
1.12217e-13
4.1946e-13
1.10803e-13
4.0927e-13
1.087e-13
3.99386e-13
1.06007e-13
3.89852e-13
1.02822e-13
3.807e-13
9.92405e-14
3.71958e-13
9.53541e-14
3.63644e-13
9.12504e-14
3.55771e-13
8.70125e-14
3.48347e-13
8.27184e-14
3.41373e-13
7.84412e-14
3.34846e-13
7.42487e-14
3.28759e-13
7.02038e-14
3.23099e-13
6.6364e-14
3.17851e-13
6.27823e-14
3.12992e-13
5.95067e-14
3.08498e-13
5.65811e-14
3.04335e-13
5.40454e-14
3.00461e-13
5.1936e-14
2.96828e-13
5.02831e-14
2.93373e-13
4.91236e-14
4.85482e-14
2.68363e-13
4.23441e-15
2.72781e-13
1.12331e-14
2.79238e-13
1.62707e-14
2.87099e-13
1.90975e-14
2.95821e-13
1.96709e-14
3.04976e-13
1.80931e-14
3.14252e-13
1.45692e-14
3.23449e-13
9.3677e-15
3.32457e-13
2.78579e-15
3.41239e-13
-4.87701e-15
3.49811e-13
-1.33358e-14
3.58219e-13
-2.23298e-14
3.66532e-13
-3.16259e-14
3.74823e-13
-4.10183e-14
3.83166e-13
-5.03258e-14
3.91627e-13
-5.93875e-14
4.00262e-13
-6.80584e-14
4.09111e-13
-7.62052e-14
4.182e-13
-8.37024e-14
4.2754e-13
-9.04293e-14
4.37123e-13
-9.62681e-14
4.46925e-13
-1.01103e-13
4.56902e-13
-1.04818e-13
4.66992e-13
-1.07302e-13
4.77117e-13
-1.08448e-13
4.87174e-13
-1.08155e-13
4.97045e-13
-1.0634e-13
5.06591e-13
-1.02937e-13
5.15659e-13
-9.79167e-14
5.24087e-13
-9.12875e-14
5.31713e-13
-8.31127e-14
5.3839e-13
-7.35148e-14
5.43996e-13
-6.26762e-14
5.48453e-13
-5.08278e-14
5.51726e-13
-3.82267e-14
5.53822e-13
-2.51213e-14
5.54764e-13
-1.17179e-14
5.54573e-13
1.8251e-15
5.53254e-13
1.53798e-14
5.50798e-13
2.88179e-14
5.47197e-13
4.19851e-14
5.42461e-13
5.46909e-14
5.36633e-13
6.67241e-14
5.29792e-13
7.78777e-14
5.22044e-13
8.79733e-14
5.13514e-13
9.68728e-14
5.0434e-13
1.04486e-13
4.94661e-13
1.10768e-13
4.8461e-13
1.15719e-13
4.74315e-13
1.19372e-13
4.63888e-13
1.21787e-13
4.53432e-13
1.23046e-13
4.43036e-13
1.2324e-13
4.3278e-13
1.22474e-13
4.2273e-13
1.20852e-13
4.12945e-13
1.18485e-13
4.03473e-13
1.15479e-13
3.94353e-13
1.11942e-13
3.85617e-13
1.07977e-13
3.77289e-13
1.03682e-13
3.69386e-13
9.91529e-14
3.6192e-13
9.44782e-14
3.54897e-13
8.97416e-14
3.48317e-13
8.50212e-14
3.42177e-13
8.03895e-14
3.36467e-13
7.59135e-14
3.31175e-13
7.16553e-14
3.26286e-13
6.7672e-14
3.21776e-13
6.40162e-14
3.1762e-13
6.07371e-14
3.13784e-13
5.78811e-14
3.10229e-13
5.54919e-14
3.06904e-13
5.36081e-14
3.03749e-13
5.22779e-14
5.16139e-14
2.68213e-13
2.68833e-15
2.72271e-13
7.17476e-15
2.78261e-13
1.02807e-14
2.85639e-13
1.17196e-14
2.9393e-13
1.13801e-14
3.02746e-13
9.27702e-15
3.11793e-13
5.52217e-15
3.20866e-13
2.94429e-16
3.2984e-13
-6.18814e-15
3.38654e-13
-1.36907e-14
3.47296e-13
-2.19778e-14
3.5579e-13
-3.08235e-14
3.64181e-13
-4.0017e-14
3.72527e-13
-4.93643e-14
3.80889e-13
-5.86878e-14
3.89325e-13
-6.78239e-14
3.97887e-13
-7.66207e-14
4.06617e-13
-8.49345e-14
4.15541e-13
-9.26272e-14
4.24676e-13
-9.9564e-14
4.3402e-13
-1.05612e-13
4.43556e-13
-1.10639e-13
4.5325e-13
-1.14512e-13
4.6305e-13
-1.17102e-13
4.72884e-13
-1.18282e-13
4.8266e-13
-1.17931e-13
4.92264e-13
-1.15944e-13
5.0156e-13
-1.12233e-13
5.10392e-13
-1.06749e-13
5.18592e-13
-9.94867e-14
5.25985e-13
-9.0506e-14
5.32413e-13
-7.99432e-14
5.37752e-13
-6.80144e-14
5.41927e-13
-5.50033e-14
5.44932e-13
-4.12321e-14
5.46814e-13
-2.70034e-14
5.47638e-13
-1.25418e-14
5.47448e-13
2.01521e-15
5.46249e-13
1.65795e-14
5.44007e-13
3.10592e-14
5.40683e-13
4.53097e-14
5.36256e-13
5.91175e-14
5.30755e-13
7.22255e-14
5.24251e-13
8.43814e-14
5.16854e-13
9.53705e-14
5.08694e-13
1.05032e-13
4.99916e-13
1.13264e-13
4.90661e-13
1.20023e-13
4.81065e-13
1.25314e-13
4.71253e-13
1.29184e-13
4.61335e-13
1.31705e-13
4.51409e-13
1.32972e-13
4.4156e-13
1.3309e-13
4.31861e-13
1.32172e-13
4.22377e-13
1.30337e-13
4.13159e-13
1.27702e-13
4.04254e-13
1.24384e-13
3.95697e-13
1.20498e-13
3.87519e-13
1.16155e-13
3.7974e-13
1.11461e-13
3.72377e-13
1.06516e-13
3.65439e-13
1.01416e-13
3.5893e-13
9.62505e-14
3.5285e-13
9.11013e-14
3.47194e-13
8.60456e-14
3.41953e-13
8.11548e-14
3.37113e-13
7.64946e-14
3.32659e-13
7.21263e-14
3.28568e-13
6.8107e-14
3.24815e-13
6.44909e-14
3.21365e-13
6.13302e-14
3.18182e-13
5.86757e-14
3.15216e-13
5.65737e-14
3.12411e-13
5.50827e-14
5.43353e-14
2.68068e-13
1.28671e-15
2.7177e-13
3.47273e-15
2.77275e-13
4.77635e-15
2.84114e-13
4.88039e-15
2.91874e-13
3.62049e-15
3.00207e-13
9.43942e-16
3.0884e-13
-3.11168e-15
3.17576e-13
-8.4408e-15
3.2628e-13
-1.48922e-14
3.34877e-13
-2.22882e-14
3.43338e-13
-3.04388e-14
3.51667e-13
-3.91524e-14
3.59892e-13
-4.82418e-14
3.68055e-13
-5.75275e-14
3.76206e-13
-6.68388e-14
3.84395e-13
-7.60132e-14
3.92669e-13
-8.48946e-14
4.01067e-13
-9.33321e-14
4.09617e-13
-1.01178e-13
4.18338e-13
-1.08285e-13
4.27233e-13
-1.14507e-13
4.36293e-13
-1.19698e-13
4.4549e-13
-1.23709e-13
4.54782e-13
-1.26395e-13