/*--------------------------------*- C++ -*----------------------------------*\
  =========                 |
  \\      /  F ield         | OpenFOAM: The Open Source CFD Toolbox
   \\    /   O peration     | Website:  https://openfoam.org
    \\  /    A nd           | Version:  7
     \\/     M anipulation  |
\*---------------------------------------------------------------------------*/
FoamFile
{
    version     2.0;
    format      ascii;
    class       volVectorField;
    location    "15";
    object      U;
}
// * * * * * * * * * * * * * * * * * * * * * * * * * * * * * * * * * * * * * //

dimensions      [0 1 -1 0 0 0 0];

internalField   nonuniform List<vector> 
5625
(
(0.00069507 0.000147179 0)
(0.000593134 0.000127838 0)
(0.000428825 7.49133e-05 0)
(0.000311026 4.21245e-05 0)
(0.000241992 2.43357e-05 0)
(0.000198788 1.46492e-05 0)
(0.000169769 9.25708e-06 0)
(0.000149618 6.12582e-06 0)
(0.000135316 4.19378e-06 0)
(0.000125036 2.92137e-06 0)
(0.000117658 2.03221e-06 0)
(0.00011246 1.37949e-06 0)
(0.000108955 8.81129e-07 0)
(0.000106798 4.88832e-07 0)
(0.000105737 1.72626e-07 0)
(0.000105581 -8.67233e-08 0)
(0.000106179 -3.02126e-07 0)
(0.000107412 -4.822e-07 0)
(0.000109178 -6.33004e-07 0)
(0.000111392 -7.5848e-07 0)
(0.000113976 -8.61492e-07 0)
(0.000116862 -9.43662e-07 0)
(0.000119983 -1.00629e-06 0)
(0.000123276 -1.04983e-06 0)
(0.000126681 -1.0749e-06 0)
(0.000130137 -1.08148e-06 0)
(0.000133585 -1.0701e-06 0)
(0.000136968 -1.04075e-06 0)
(0.000140228 -9.94241e-07 0)
(0.000143311 -9.30891e-07 0)
(0.000146165 -8.5209e-07 0)
(0.000148743 -7.58612e-07 0)
(0.000150999 -6.52476e-07 0)
(0.000152897 -5.34912e-07 0)
(0.000154403 -4.08459e-07 0)
(0.000155491 -2.74658e-07 0)
(0.000156142 -1.36358e-07 0)
(0.000156344 4.78022e-09 0)
(0.000156093 1.45826e-07 0)
(0.000155391 2.85171e-07 0)
(0.000154246 4.20016e-07 0)
(0.000152676 5.48959e-07 0)
(0.000150703 6.69535e-07 0)
(0.000148353 7.80701e-07 0)
(0.000145661 8.80517e-07 0)
(0.000142661 9.68437e-07 0)
(0.000139394 1.04319e-06 0)
(0.000135902 1.10481e-06 0)
(0.000132225 1.15273e-06 0)
(0.000128408 1.18755e-06 0)
(0.000124492 1.20932e-06 0)
(0.000120516 1.21909e-06 0)
(0.000116519 1.21743e-06 0)
(0.000112534 1.20565e-06 0)
(0.000108594 1.18462e-06 0)
(0.000104726 1.15582e-06 0)
(0.000100954 1.12028e-06 0)
(9.72974e-05 1.0795e-06 0)
(9.37722e-05 1.03457e-06 0)
(9.03898e-05 9.86994e-07 0)
(8.71575e-05 9.37888e-07 0)
(8.40787e-05 8.88787e-07 0)
(8.11519e-05 8.40912e-07 0)
(7.83716e-05 7.95975e-07 0)
(7.57269e-05 7.55551e-07 0)
(7.32015e-05 7.21953e-07 0)
(7.07723e-05 6.9783e-07 0)
(6.8408e-05 6.8742e-07 0)
(6.60647e-05 6.97107e-07 0)
(6.36793e-05 7.38113e-07 0)
(6.11678e-05 8.28577e-07 0)
(5.84277e-05 1.00338e-06 0)
(5.51764e-05 1.34617e-06 0)
(5.0496e-05 1.98725e-06 0)
(4.47108e-05 2.78465e-06 0)
(0.000985676 0.000289614 0)
(0.000967949 0.000304597 0)
(0.000841361 0.000216459 0)
(0.000708734 0.000145324 0)
(0.000603606 9.77546e-05 0)
(0.000523361 6.6814e-05 0)
(0.000462519 4.66783e-05 0)
(0.000416707 3.32732e-05 0)
(0.000382353 2.40194e-05 0)
(0.000356735 1.73774e-05 0)
(0.000337873 1.24349e-05 0)
(0.000324337 8.63978e-06 0)
(0.000315071 5.64786e-06 0)
(0.000309286 3.23765e-06 0)
(0.000306378 1.26257e-06 0)
(0.000305873 -3.77146e-07 0)
(0.000307393 -1.75018e-06 0)
(0.000310623 -2.90486e-06 0)
(0.0003153 -3.8747e-06 0)
(0.000321193 -4.68349e-06 0)
(0.000328094 -5.3471e-06 0)
(0.000335815 -5.87677e-06 0)
(0.000344177 -6.27924e-06 0)
(0.000353008 -6.55952e-06 0)
(0.000362141 -6.72007e-06 0)
(0.000371412 -6.76367e-06 0)
(0.000380664 -6.69173e-06 0)
(0.000389737 -6.50759e-06 0)
(0.00039848 -6.2139e-06 0)
(0.000406745 -5.8164e-06 0)
(0.000414395 -5.32039e-06 0)
(0.000421299 -4.7349e-06 0)
(0.000427342 -4.06824e-06 0)
(0.000432419 -3.33265e-06 0)
(0.000436444 -2.53896e-06 0)
(0.000439347 -1.70167e-06 0)
(0.000441075 -8.33074e-07 0)
(0.000441597 5.12797e-08 0)
(0.000440899 9.38819e-07 0)
(0.000438986 1.81419e-06 0)
(0.000435883 2.66562e-06 0)
(0.00043163 3.47911e-06 0)
(0.000426285 4.24468e-06 0)
(0.000419922 4.95083e-06 0)
(0.000412626 5.59033e-06 0)
(0.000404492 6.15512e-06 0)
(0.000395624 6.64148e-06 0)
(0.000386133 7.04532e-06 0)
(0.000376131 7.36659e-06 0)
(0.00036573 7.60511e-06 0)
(0.000355042 7.76416e-06 0)
(0.000344174 7.84682e-06 0)
(0.000333226 7.85892e-06 0)
(0.000322293 7.80585e-06 0)
(0.000311459 7.69509e-06 0)
(0.000300799 7.5334e-06 0)
(0.000290379 7.32908e-06 0)
(0.000280252 7.08954e-06 0)
(0.000270464 6.82335e-06 0)
(0.000261045 6.5382e-06 0)
(0.000252018 6.24281e-06 0)
(0.000243392 5.94515e-06 0)
(0.000235166 5.65444e-06 0)
(0.000227327 5.37957e-06 0)
(0.000219848 5.1313e-06 0)
(0.000212688 4.92118e-06 0)
(0.000205792 4.76419e-06 0)
(0.000199086 4.67886e-06 0)
(0.000192472 4.69189e-06 0)
(0.000185823 4.841e-06 0)
(0.00017899 5.18095e-06 0)
(0.000171839 5.79489e-06 0)
(0.00016407 6.83978e-06 0)
(0.000154626 8.48333e-06 0)
(0.000144624 1.02305e-05 0)
(0.00102835 0.000252697 0)
(0.00105562 0.000355513 0)
(0.00100753 0.00031641 0)
(0.00092421 0.000251186 0)
(0.000836934 0.00019126 0)
(0.000757986 0.000143448 0)
(0.00069122 0.000107294 0)
(0.000636951 8.03004e-05 0)
(0.000593973 5.99921e-05 0)
(0.00056067 4.44662e-05 0)
(0.000535497 3.23709e-05 0)
(0.000517124 2.27686e-05 0)
(0.000504449 1.50112e-05 0)
(0.000496574 8.64813e-06 0)
(0.000492765 3.36267e-06 0)
(0.000492418 -1.06952e-06 0)
(0.000495029 -4.80914e-06 0)
(0.000500169 -7.97084e-06 0)
(0.000507465 -1.06371e-05 0)
(0.000516583 -1.28657e-05 0)
(0.000527221 -1.46977e-05 0)
(0.000539096 -1.61602e-05 0)
(0.00055194 -1.72723e-05 0)
(0.000565493 -1.80452e-05 0)
(0.000579502 -1.8488e-05 0)
(0.000593718 -1.8606e-05 0)
(0.000607896 -1.84065e-05 0)
(0.000621797 -1.78958e-05 0)
(0.000635187 -1.70854e-05 0)
(0.000647843 -1.59873e-05 0)
(0.000659552 -1.46209e-05 0)
(0.000670116 -1.30063e-05 0)
(0.000679357 -1.11716e-05 0)
(0.000687118 -9.14466e-06 0)
(0.000693265 -6.96098e-06 0)
(0.00069769 -4.65407e-06 0)
(0.000700316 -2.26368e-06 0)
(0.000701091 1.74234e-07 0)
(0.000699994 2.61891e-06 0)
(0.000697032 5.03505e-06 0)
(0.00069224 7.384e-06 0)
(0.000685682 9.634e-06 0)
(0.000677444 1.17515e-05 0)
(0.000667635 1.37111e-05 0)
(0.000656385 1.54871e-05 0)
(0.000643838 1.70628e-05 0)
(0.000630154 1.84227e-05 0)
(0.000615497 1.956e-05 0)
(0.00060004 2.04697e-05 0)
(0.000583955 2.1155e-05 0)
(0.00056741 2.16207e-05 0)
(0.000550569 2.18781e-05 0)
(0.000533587 2.19396e-05 0)
(0.000516608 2.18225e-05 0)
(0.000499761 2.15442e-05 0)
(0.000483163 2.11255e-05 0)
(0.000466916 2.05865e-05 0)
(0.000451102 1.99497e-05 0)
(0.000435792 1.92363e-05 0)
(0.000421036 1.84694e-05 0)
(0.00040687 1.76709e-05 0)
(0.000393311 1.68644e-05 0)
(0.00038036 1.60728e-05 0)
(0.000368 1.53216e-05 0)
(0.000356196 1.4637e-05 0)
(0.000344897 1.40492e-05 0)
(0.000334028 1.35919e-05 0)
(0.000323496 1.33067e-05 0)
(0.000313185 1.32438e-05 0)
(0.000302955 1.34668e-05 0)
(0.00029266 1.40505e-05 0)
(0.000282229 1.50808e-05 0)
(0.000271474 1.66526e-05 0)
(0.000259322 1.87331e-05 0)
(0.000247053 2.05419e-05 0)
(0.00102598 0.000195935 0)
(0.00106494 0.00034329 0)
(0.00106522 0.000357312 0)
(0.00102911 0.000318312 0)
(0.000974288 0.000264576 0)
(0.000914719 0.00021235 0)
(0.000858193 0.000167241 0)
(0.000808393 0.00013008 0)
(0.000766614 9.99692e-05 0)
(0.000732901 7.56179e-05 0)
(0.000706725 5.58179e-05 0)
(0.000687349 3.95767e-05 0)
(0.000673999 2.61231e-05 0)
(0.000665945 1.48721e-05 0)
(0.000662525 5.38611e-06 0)
(0.000663152 -2.6615e-06 0)
(0.000667305 -9.51211e-06 0)
(0.000674518 -1.53442e-05 0)
(0.00068437 -2.02872e-05 0)
(0.000696475 -2.44351e-05 0)
(0.000710471 -2.78529e-05 0)
(0.000726013 -3.05864e-05 0)
(0.000742768 -3.2665e-05 0)
(0.000760411 -3.41094e-05 0)
(0.000778622 -3.49321e-05 0)
(0.000797085 -3.51452e-05 0)
(0.000815485 -3.47582e-05 0)
(0.000833516 -3.37868e-05 0)
(0.000850877 -3.22482e-05 0)
(0.000867278 -3.01699e-05 0)
(0.000882447 -2.75832e-05 0)
(0.000896128 -2.45317e-05 0)
(0.00090809 -2.10622e-05 0)
(0.00091813 -1.72339e-05 0)
(0.000926075 -1.31063e-05 0)
(0.000931787 -8.74986e-06 0)
(0.000935163 -4.23151e-06 0)
(0.000936139 3.73582e-07 0)
(0.000934685 4.99678e-06 0)
(0.00093081 9.56403e-06 0)
(0.000924561 1.40106e-05 0)
(0.000916015 1.82692e-05 0)
(0.000905284 2.22843e-05 0)
(0.000892509 2.60006e-05 0)
(0.000877855 2.93767e-05 0)
(0.00086151 3.23743e-05 0)
(0.000843677 3.497e-05 0)
(0.000824571 3.71451e-05 0)
(0.000804412 3.8895e-05 0)
(0.000783422 4.02205e-05 0)
(0.000761821 4.11344e-05 0)
(0.00073982 4.16536e-05 0)
(0.000717618 4.18047e-05 0)
(0.000695403 4.16163e-05 0)
(0.000673342 4.11239e-05 0)
(0.000651588 4.03633e-05 0)
(0.000630272 3.93749e-05 0)
(0.000609505 3.8198e-05 0)
(0.000589377 3.6875e-05 0)
(0.000569956 3.54462e-05 0)
(0.000551292 3.39549e-05 0)
(0.000533409 3.24423e-05 0)
(0.000516315 3.09527e-05 0)
(0.000499994 2.95296e-05 0)
(0.00048441 2.82209e-05 0)
(0.000469506 2.7076e-05 0)
(0.000455206 2.61506e-05 0)
(0.000441415 2.55051e-05 0)
(0.000428021 2.52083e-05 0)
(0.000414897 2.53331e-05 0)
(0.000401927 2.59514e-05 0)
(0.000389105 2.71137e-05 0)
(0.000376309 2.88222e-05 0)
(0.000362361 3.08787e-05 0)
(0.000348512 3.24584e-05 0)
(0.00101833 0.000154134 0)
(0.00105544 0.000310709 0)
(0.00107873 0.000358658 0)
(0.00107504 0.000346805 0)
(0.00105027 0.000308034 0)
(0.00101436 0.000260837 0)
(0.000974875 0.000214328 0)
(0.000936675 0.000172266 0)
(0.000902527 0.000135704 0)
(0.000873779 0.000104486 0)
(0.000850898 7.80025e-05 0)
(0.000833854 5.55425e-05 0)
(0.000822354 3.64407e-05 0)
(0.000815986 2.01301e-05 0)
(0.000814287 6.14858e-06 0)
(0.000816793 -5.86875e-06 0)
(0.000823051 -1.62055e-05 0)
(0.000832628 -2.50765e-05 0)
(0.000845109 -3.26432e-05 0)
(0.000860098 -3.90222e-05 0)
(0.000877209 -4.42972e-05 0)
(0.000896066 -4.85242e-05 0)
(0.000916299 -5.17419e-05 0)
(0.000937537 -5.39735e-05 0)
(0.000959413 -5.5237e-05 0)
(0.000981558 -5.55443e-05 0)
(0.00100361 -5.49125e-05 0)
(0.0010252 -5.33599e-05 0)
(0.00104597 -5.09176e-05 0)
(0.00106559 -4.76228e-05 0)
(0.00108373 -4.35303e-05 0)
(0.00110008 -3.87021e-05 0)
(0.00111437 -3.3219e-05 0)
(0.00112635 -2.71665e-05 0)
(0.00113583 -2.06467e-05 0)
(0.00114263 -1.37614e-05 0)
(0.00114664 -6.62511e-06 0)
(0.00114778 6.53551e-07 0)
(0.001146 7.95732e-06 0)
(0.00114134 1.51796e-05 0)
(0.00113383 2.22092e-05 0)
(0.00112356 2.89497e-05 0)
(0.00111069 3.53043e-05 0)
(0.00109536 4.11948e-05 0)
(0.00107777 4.65473e-05 0)
(0.00105816 5.13091e-05 0)
(0.00103676 5.54354e-05 0)
(0.00101383 5.89033e-05 0)
(0.000989627 6.1699e-05 0)
(0.000964424 6.38289e-05 0)
(0.000938478 6.53077e-05 0)
(0.000912043 6.61664e-05 0)
(0.000885357 6.64419e-05 0)
(0.000858643 6.6183e-05 0)
(0.000832102 6.54413e-05 0)
(0.000805915 6.42765e-05 0)
(0.00078024 6.27482e-05 0)
(0.00075521 6.09208e-05 0)
(0.000730934 5.88573e-05 0)
(0.000707497 5.66236e-05 0)
(0.000684959 5.42835e-05 0)
(0.000663356 5.19031e-05 0)
(0.0006427 4.9547e-05 0)
(0.000622982 4.72826e-05 0)
(0.000604169 4.51771e-05 0)
(0.000586208 4.33021e-05 0)
(0.000569029 4.17301e-05 0)
(0.000552543 4.05383e-05 0)
(0.000536654 3.98031e-05 0)
(0.000521253 3.95982e-05 0)
(0.000506255 3.99764e-05 0)
(0.000491691 4.095e-05 0)
(0.000477459 4.24495e-05 0)
(0.000462233 4.42085e-05 0)
(0.000447219 4.54887e-05 0)
(0.00101235 0.000124356 0)
(0.00104406 0.000274112 0)
(0.00107621 0.000339651 0)
(0.00109191 0.000348843 0)
(0.00108985 0.000326104 0)
(0.00107527 0.000288172 0)
(0.00105377 0.000245154 0)
(0.00102979 0.000202524 0)
(0.00100652 0.000162889 0)
(0.000985974 0.000127238 0)
(0.000969299 9.5722e-05 0)
(0.00095705 6.80965e-05 0)
(0.000949397 4.39692e-05 0)
(0.00094627 2.29205e-05 0)
(0.000947461 4.56258e-06 0)
(0.000952681 -1.14389e-05 0)
(0.000961598 -2.53577e-05 0)
(0.000973857 -3.74112e-05 0)
(0.000989093 -4.77648e-05 0)
(0.00100693 -5.65418e-05 0)
(0.001027 -6.38278e-05 0)
(0.00104892 -6.96823e-05 0)
(0.00107229 -7.41413e-05 0)
(0.00109673 -7.72289e-05 0)
(0.00112183 -7.89583e-05 0)
(0.0011472 -7.93442e-05 0)
(0.00117242 -7.84011e-05 0)
(0.0011971 -7.61569e-05 0)
(0.00122083 -7.2647e-05 0)
(0.00124323 -6.79294e-05 0)
(0.00126393 -6.20734e-05 0)
(0.00128258 -5.51747e-05 0)
(0.00129887 -4.73396e-05 0)
(0.00131252 -3.8699e-05 0)
(0.00132331 -2.93886e-05 0)
(0.00133104 -1.95636e-05 0)
(0.00133559 -9.37584e-06 0)
(0.00133685 1.00919e-06 0)
(0.0013348 1.14368e-05 0)
(0.00132944 2.17441e-05 0)
(0.00132084 3.1785e-05 0)
(0.0013091 4.14108e-05 0)
(0.00129438 5.0495e-05 0)
(0.00127685 5.89151e-05 0)
(0.00125676 6.65756e-05 0)
(0.00123434 7.33915e-05 0)
(0.00120988 7.93074e-05 0)
(0.00118368 8.42822e-05 0)
(0.00115602 8.83035e-05 0)
(0.00112722 9.13733e-05 0)
(0.00109757 9.35187e-05 0)
(0.00106736 9.47779e-05 0)
(0.00103686 9.52086e-05 0)
(0.00100632 9.4875e-05 0)
(0.000975977 9.38546e-05 0)
(0.000946031 9.22276e-05 0)
(0.000916663 9.00821e-05 0)
(0.000888026 8.75052e-05 0)
(0.000860244 8.45889e-05 0)
(0.000833415 8.14221e-05 0)
(0.000807611 7.80968e-05 0)
(0.000782877 7.47013e-05 0)
(0.000759234 7.13265e-05 0)
(0.000736678 6.80604e-05 0)
(0.000715184 6.49938e-05 0)
(0.000694707 6.2215e-05 0)
(0.000675185 5.98148e-05 0)
(0.000656543 5.78796e-05 0)
(0.000638697 5.64926e-05 0)
(0.000621556 5.57198e-05 0)
(0.000605053 5.55996e-05 0)
(0.000589236 5.61133e-05 0)
(0.000573985 5.7157e-05 0)
(0.000557841 5.84561e-05 0)
(0.000541969 5.94037e-05 0)
(0.00100853 0.000102281 0)
(0.00103501 0.000239012 0)
(0.00106926 0.000311274 0)
(0.00109543 0.000334355 0)
(0.00110882 0.000325128 0)
(0.00111112 0.000297167 0)
(0.00110561 0.000259974 0)
(0.00109568 0.000219595 0)
(0.00108417 0.000179553 0)
(0.00107324 0.000141712 0)
(0.00106434 0.000106916 0)
(0.00105839 7.54292e-05 0)
(0.00105592 4.72046e-05 0)
(0.00105715 2.20512e-05 0)
(0.00106211 -2.74396e-07 0)
(0.0010707 -2.00147e-05 0)
(0.00108272 -3.73884e-05 0)
(0.00109793 -5.25764e-05 0)
(0.00111604 -6.57227e-05 0)
(0.00113671 -7.69324e-05 0)
(0.00115961 -8.62799e-05 0)
(0.00118437 -9.38106e-05 0)
(0.0012106 -9.95522e-05 0)
(0.00123791 -0.000103515 0)
(0.00126588 -0.000105709 0)
(0.00129409 -0.000106136 0)
(0.00132209 -0.000104815 0)
(0.00134947 -0.000101768 0)
(0.00137577 -9.70465e-05 0)
(0.00140058 -9.07154e-05 0)
(0.00142349 -8.28741e-05 0)
(0.00144413 -7.36394e-05 0)
(0.00146214 -6.31628e-05 0)
(0.00147723 -5.16082e-05 0)
(0.00148914 -3.91685e-05 0)
(0.00149767 -2.60385e-05 0)
(0.00150267 -1.24334e-05 0)
(0.00150404 1.44057e-06 0)
(0.00150175 1.53643e-05 0)
(0.0014958 2.91358e-05 0)
(0.00148626 4.2547e-05 0)
(0.00147326 5.54135e-05 0)
(0.00145695 6.75533e-05 0)
(0.00143755 7.88149e-05 0)
(0.0014153 8.90586e-05 0)
(0.0013905 9.81813e-05 0)
(0.00136344 0.000106098 0)
(0.00133445 0.000112764 0)
(0.00130387 0.000118153 0)
(0.00127203 0.000122277 0)
(0.00123926 0.000125165 0)
(0.00120587 0.000126874 0)
(0.00117218 0.000127475 0)
(0.00113845 0.00012706 0)
(0.00110493 0.000125726 0)
(0.00107186 0.000123585 0)
(0.00103944 0.000120748 0)
(0.00100781 0.000117336 0)
(0.000977141 0.000113463 0)
(0.000947523 0.000109252 0)
(0.000919042 0.000104816 0)
(0.000891752 0.000100275 0)
(0.000865682 9.5741e-05 0)
(0.000840836 9.13271e-05 0)
(0.000817196 8.71424e-05 0)
(0.000794727 8.3296e-05 0)
(0.000773375 7.98903e-05 0)
(0.000753076 7.70239e-05 0)
(0.00073376 7.47803e-05 0)
(0.000715347 7.32248e-05 0)
(0.000697774 7.23831e-05 0)
(0.000681089 7.22261e-05 0)
(0.000665144 7.26396e-05 0)
(0.000648368 7.33796e-05 0)
(0.000631898 7.39735e-05 0)
(0.00100621 8.52266e-05 0)
(0.00102853 0.000206984 0)
(0.00106202 0.000279216 0)
(0.00109329 0.000310068 0)
(0.00111653 0.000310751 0)
(0.00113117 0.000291598 0)
(0.00113866 0.000260762 0)
(0.00114113 0.000224073 0)
(0.00114079 0.000185392 0)
(0.00113955 0.000147105 0)
(0.00113891 0.000110578 0)
(0.00113992 7.65132e-05 0)
(0.00114332 4.52089e-05 0)
(0.00114954 1.67279e-05 0)
(0.0011588 -8.98887e-06 0)
(0.00117116 -3.20553e-05 0)
(0.00118658 -5.25967e-05 0)
(0.0012049 -7.073e-05 0)
(0.00122592 -8.65484e-05 0)
(0.00124938 -0.000100122 0)
(0.00127498 -0.000111491 0)
(0.00130238 -0.00012068 0)
(0.00133123 -0.000127688 0)
(0.00136111 -0.000132511 0)
(0.00139162 -0.000135136 0)
(0.00142232 -0.000135559 0)
(0.00145277 -0.000133782 0)
(0.00148249 -0.000129834 0)
(0.00151102 -0.000123763 0)
(0.00153793 -0.000115655 0)
(0.00156276 -0.000105624 0)
(0.00158511 -9.38281e-05 0)
(0.00160461 -8.04473e-05 0)
(0.00162094 -6.5704e-05 0)
(0.00163381 -4.98312e-05 0)
(0.00164302 -3.30919e-05 0)
(0.0016484 -1.57443e-05 0)
(0.00164986 1.93406e-06 0)
(0.00164735 1.96824e-05 0)
(0.0016409 3.7229e-05 0)
(0.00163057 5.43262e-05 0)
(0.00161649 7.07241e-05 0)
(0.00159885 8.62055e-05 0)
(0.00157786 0.000100562 0)
(0.0015538 0.000113628 0)
(0.00152698 0.000125259 0)
(0.00149774 0.000135358 0)
(0.00146642 0.000143855 0)
(0.0014334 0.00015073 0)
(0.00139903 0.000155988 0)
(0.00136368 0.000159675 0)
(0.00132769 0.000161859 0)
(0.00129138 0.000162637 0)
(0.00125505 0.00016212 0)
(0.00121897 0.000160438 0)
(0.00118338 0.000157727 0)
(0.00114849 0.000154132 0)
(0.00111448 0.0001498 0)
(0.00108151 0.000144881 0)
(0.00104969 0.000139521 0)
(0.0010191 0.000133867 0)
(0.000989814 0.000128061 0)
(0.000961862 0.000122242 0)
(0.000935256 0.000116546 0)
(0.000909986 0.000111102 0)
(0.000886024 0.000106036 0)
(0.000863326 0.000101465 0)
(0.000841836 9.74948e-05 0)
(0.000821491 9.42165e-05 0)
(0.000802216 9.16929e-05 0)
(0.000783946 8.99517e-05 0)
(0.000766718 8.89626e-05 0)
(0.000750354 8.86265e-05 0)
(0.000733205 8.87422e-05 0)
(0.000716382 8.89723e-05 0)
(0.0010048 7.14557e-05 0)
(0.00102398 0.00017809 0)
(0.0010557 0.000246324 0)
(0.00108903 0.00028035 0)
(0.00111818 0.000287442 0)
(0.0011414 0.000275173 0)
(0.00115881 0.000250148 0)
(0.00117149 0.000217558 0)
(0.00118093 0.000181188 0)
(0.00118864 0.000143631 0)
(0.00119594 0.000106566 0)
(0.00120389 7.10242e-05 0)
(0.00121328 3.75927e-05 0)
(0.00122468 6.57515e-06 0)
(0.00123842 -2.18986e-05 0)
(0.00125471 -4.77943e-05 0)
(0.0012736 -7.1126e-05 0)
(0.00129506 -9.19216e-05 0)
(0.00131895 -0.000110208 0)
(0.00134508 -0.000125998 0)
(0.00137321 -0.000139288 0)
(0.00140303 -0.000150059 0)
(0.00143422 -0.000158282 0)
(0.00146639 -0.000163915 0)
(0.00149914 -0.000166926 0)
(0.00153202 -0.000167283 0)
(0.00156458 -0.00016498 0)
(0.00159633 -0.000160031 0)
(0.0016268 -0.000152493 0)
(0.00165551 -0.000142455 0)
(0.001682 -0.000130063 0)
(0.00170582 -0.000115496 0)
(0.00172659 -9.89903e-05 0)
(0.00174396 -8.08069e-05 0)
(0.00175765 -6.125e-05 0)
(0.00176742 -4.06274e-05 0)
(0.00177312 -1.92746e-05 0)
(0.00177465 2.48779e-06 0)
(0.00177197 2.43229e-05 0)
(0.0017651 4.59184e-05 0)
(0.00175411 6.69532e-05 0)
(0.00173915 8.71386e-05 0)
(0.00172039 0.000106189 0)
(0.00169809 0.000123862 0)
(0.00167254 0.000139937 0)
(0.00164406 0.000154249 0)
(0.00161302 0.000166663 0)
(0.0015798 0.000177107 0)
(0.00154479 0.000185545 0)
(0.00150839 0.000191997 0)
(0.00147097 0.000196511 0)
(0.0014329 0.00019918 0)
(0.00139453 0.000200121 0)
(0.00135616 0.000199475 0)
(0.00131809 0.000197399 0)
(0.00128056 0.000194063 0)
(0.0012438 0.00018964 0)
(0.00120799 0.000184314 0)
(0.00117329 0.000178262 0)
(0.00113983 0.000171663 0)
(0.00110769 0.00016469 0)
(0.00107695 0.000157515 0)
(0.00104764 0.000150299 0)
(0.00101979 0.000143203 0)
(0.000993382 0.000136374 0)
(0.000968404 0.000129956 0)
(0.000944814 0.000124079 0)
(0.000922565 0.00011886 0)
(0.000901593 0.000114395 0)
(0.000881826 0.000110757 0)
(0.00086319 0.000107977 0)
(0.00084571 0.000106041 0)
(0.000829178 0.000104871 0)
(0.000811901 0.000104323 0)
(0.000794965 0.000104181 0)
(0.0010039 5.98778e-05 0)
(0.00102073 0.00015194 0)
(0.00105044 0.000213949 0)
(0.00108417 0.000247916 0)
(0.0011166 0.000258477 0)
(0.00114549 0.000251041 0)
(0.00117011 0.000230761 0)
(0.00119075 0.000202027 0)
(0.00120825 0.000168295 0)
(0.00122369 0.000132131 0)
(0.00123812 9.53495e-05 0)
(0.00125249 5.91809e-05 0)
(0.00126758 2.44276e-05 0)
(0.00128396 -8.40831e-06 0)
(0.00130207 -3.90221e-05 0)
(0.00132218 -6.72357e-05 0)
(0.00134444 -9.2942e-05 0)
(0.0013689 -0.000116073 0)
(0.00139549 -0.000136572 0)
(0.00142409 -0.000154385 0)
(0.00145451 -0.00016945 0)
(0.0014865 -0.000181698 0)
(0.00151975 -0.000191051 0)
(0.0015539 -0.000197432 0)
(0.00158856 -0.000200766 0)
(0.0016233 -0.000201 0)
(0.00165766 -0.000198097 0)
(0.00169114 -0.000192065 0)
(0.00172326 -0.000182947 0)
(0.00175349 -0.000170853 0)
(0.00178138 -0.000155936 0)
(0.00180644 -0.000138426 0)
(0.00182826 -0.000118589 0)
(0.0018465 -9.67607e-05 0)
(0.00186085 -7.32899e-05 0)
(0.00187108 -4.85681e-05 0)
(0.00187703 -2.29763e-05 0)
(0.00187862 3.08329e-06 0)
(0.0018758 2.92343e-05 0)
(0.0018686 5.50858e-05 0)
(0.00185709 8.02785e-05 0)
(0.00184142 0.000104446 0)
(0.00182178 0.000127264 0)
(0.00179843 0.000148422 0)
(0.00177169 0.000167667 0)
(0.00174189 0.000184782 0)
(0.00170943 0.000199621 0)
(0.00167472 0.000212084 0)
(0.00163817 0.000222143 0)
(0.0016002 0.000229811 0)
(0.00156121 0.000235162 0)
(0.00152159 0.000238302 0)
(0.00148169 0.00023938 0)
(0.00144184 0.000238562 0)
(0.00140234 0.000236042 0)
(0.00136344 0.000232018 0)
(0.00132537 0.000226703 0)
(0.00128832 0.000220308 0)
(0.00125246 0.000213045 0)
(0.0012179 0.000205123 0)
(0.00118476 0.000196746 0)
(0.00115309 0.000188109 0)
(0.00112294 0.000179402 0)
(0.00109433 0.000170803 0)
(0.00106727 0.000162485 0)
(0.00104173 0.000154603 0)
(0.00101767 0.000147305 0)
(0.000995066 0.000140718 0)
(0.000973841 0.00013495 0)
(0.00095392 0.000130082 0)
(0.000935225 0.000126163 0)
(0.00091776 0.000123197 0)
(0.0009013 0.000121141 0)
(0.000884135 0.000119903 0)
(0.00086732 0.000119387 0)
(0.00100329 4.98318e-05 0)
(0.00101832 0.000128097 0)
(0.00104607 0.0001827 0)
(0.00107927 0.000214428 0)
(0.00111326 0.000226167 0)
(0.00114563 0.000221701 0)
(0.00117523 0.000204942 0)
(0.00120177 0.000179467 0)
(0.00122558 0.000148287 0)
(0.00124733 0.000113789 0)
(0.00126781 7.77816e-05 0)
(0.00128777 4.1585e-05 0)
(0.00130792 6.13599e-06 0)
(0.00132882 -2.7914e-05 0)
(0.00135092 -6.01182e-05 0)
(0.00137453 -9.01666e-05 0)
(0.00139987 -0.000117839 0)
(0.00142704 -0.000142965 0)
(0.00145605 -0.000165404 0)
(0.00148682 -0.000185024 0)
(0.00151923 -0.000201699 0)
(0.00155305 -0.000215295 0)
(0.00158801 -0.000225684 0)
(0.00162381 -0.000232735 0)
(0.00166004 -0.000236335 0)
(0.00169631 -0.000236385 0)
(0.00173213 -0.000232824 0)
(0.00176703 -0.00022563 0)
(0.00180048 -0.000214848 0)
(0.00183197 -0.000200578 0)
(0.00186098 -0.000183008 0)
(0.00188704 -0.000162388 0)
(0.00190971 -0.000139056 0)
(0.00192862 -0.00011339 0)
(0.00194347 -8.58287e-05 0)
(0.00195403 -5.68145e-05 0)
(0.00196017 -2.68174e-05 0)
(0.0019618 3.72142e-06 0)
(0.00195887 3.43443e-05 0)
(0.00195143 6.46277e-05 0)
(0.00193955 9.41306e-05 0)
(0.00192337 0.000122449 0)
(0.00190308 0.000149177 0)
(0.00187896 0.000173964 0)
(0.00185133 0.000196488 0)
(0.00182055 0.000216509 0)
(0.00178705 0.000233837 0)
(0.00175126 0.00024837 0)
(0.00171361 0.000260064 0)
(0.00167455 0.000268954 0)
(0.00163449 0.00027512 0)
(0.00159383 0.000278702 0)
(0.00155295 0.00027987 0)
(0.00151216 0.000278831 0)
(0.00147178 0.000275805 0)
(0.00143207 0.000271034 0)
(0.00139325 0.000264757 0)
(0.00135552 0.000257225 0)
(0.00131905 0.00024868 0)
(0.00128394 0.000239364 0)
(0.00125031 0.000229507 0)
(0.00121823 0.000219333 0)
(0.00118773 0.000209054 0)
(0.00115885 0.000198874 0)
(0.00113158 0.00018898 0)
(0.00110591 0.000179549 0)
(0.0010818 0.000170739 0)
(0.00105922 0.000162695 0)
(0.00103809 0.000155536 0)
(0.00101833 0.00014936 0)
(0.000999859 0.000144231 0)
(0.000982665 0.000140185 0)
(0.000966507 0.000137209 0)
(0.000949692 0.000135271 0)
(0.000933229 0.000134377 0)
(0.00100287 4.09173e-05 0)
(0.00101646 0.000106207 0)
(0.00104235 0.000152849 0)
(0.00107452 0.000180917 0)
(0.00110889 0.000192134 0)
(0.00114316 0.000189083 0)
(0.00117593 0.000174665 0)
(0.00120657 0.000151712 0)
(0.00123504 0.000122759 0)
(0.00126166 8.99285e-05 0)
(0.00128696 5.49288e-05 0)
(0.00131151 1.90823e-05 0)
(0.0013359 -1.66089e-05 0)
(0.00136063 -5.13987e-05 0)
(0.00138614 -8.47311e-05 0)
(0.00141276 -0.000116189 0)
(0.00144073 -0.000145449 0)
(0.00147019 -0.000172247 0)
(0.00150121 -0.000196355 0)
(0.00153376 -0.000217564 0)
(0.00156775 -0.000235674 0)
(0.001603 -0.000250489 0)
(0.0016393 -0.000261813 0)
(0.00167633 -0.000269465 0)
(0.00171376 -0.000273272 0)
(0.00175116 -0.000273094 0)
(0.0017881 -0.000268823 0)
(0.00182406 -0.000260417 0)
(0.00185853 -0.000247891 0)
(0.00189096 -0.000231358 0)
(0.00192083 -0.000211011 0)
(0.00194762 -0.000187156 0)
(0.00197089 -0.000160169 0)
(0.00199025 -0.00013052 0)
(0.00200542 -9.87078e-05 0)
(0.00201618 -6.52751e-05 0)
(0.00202242 -3.07362e-05 0)
(0.00202405 4.38181e-06 0)
(0.00202107 3.95973e-05 0)
(0.00201349 7.4408e-05 0)
(0.0020014 0.000108346 0)
(0.00198491 0.000140917 0)
(0.00196424 0.000171675 0)
(0.00193963 0.000200181 0)
(0.00191144 0.000226077 0)
(0.00188006 0.000249057 0)
(0.00184591 0.000268918 0)
(0.00180946 0.000285527 0)
(0.00177117 0.000298855 0)
(0.00173149 0.000308935 0)
(0.00169087 0.000315881 0)
(0.0016497 0.00031985 0)
(0.00160837 0.000321054 0)
(0.0015672 0.000319728 0)
(0.00152651 0.000316135 0)
(0.00148654 0.000310548 0)
(0.00144754 0.000303248 0)
(0.00140968 0.000294515 0)
(0.00137313 0.000284628 0)
(0.00133801 0.000273855 0)
(0.00130442 0.00026246 0)
(0.00127242 0.000250688 0)
(0.00124206 0.00023878 0)
(0.00121337 0.000226955 0)
(0.00118633 0.000215426 0)
(0.00116094 0.000204381 0)
(0.00113717 0.000194 0)
(0.00111496 0.000184437 0)
(0.00109426 0.000175832 0)
(0.00107496 0.000168295 0)
(0.00105699 0.000161919 0)
(0.00104031 0.000156763 0)
(0.00102468 0.000152856 0)
(0.00100845 0.000150212 0)
(0.000992568 0.000148947 0)
(0.00100254 3.2888e-05 0)
(0.00101493 8.6013e-05 0)
(0.00103909 0.000124521 0)
(0.0010699 0.00014805 0)
(0.00110387 0.00015753 0)
(0.00113883 0.000154666 0)
(0.00117334 0.000141554 0)
(0.00120657 0.000120382 0)
(0.0012382 9.32163e-05 0)
(0.00126831 6.18899e-05 0)
(0.00129719 2.7949e-05 0)
(0.00132524 -7.34192e-06 0)
(0.00135292 -4.2974e-05 0)
(0.00138067 -7.81503e-05 0)
(0.00140888 -0.000112244 0)
(0.00143787 -0.000144753 0)
(0.00146789 -0.00017527 0)
(0.00149911 -0.000203445 0)
(0.00153163 -0.000228971 0)
(0.00156546 -0.00025156 0)
(0.00160054 -0.00027094 0)
(0.00163676 -0.000286844 0)
(0.0016739 -0.000299014 0)
(0.00171172 -0.000307198 0)
(0.00174989 -0.000311172 0)
(0.00178801 -0.00031073 0)
(0.00182563 -0.000305726 0)
(0.00186227 -0.000296066 0)
(0.00189739 -0.000281753 0)
(0.00193043 -0.000262879 0)
(0.00196082 -0.000239669 0)
(0.00198805 -0.000212453 0)
(0.00201163 -0.000181693 0)
(0.0020312 -0.000147924 0)
(0.00204646 -0.000111762 0)
(0.00205724 -7.38101e-05 0)
(0.00206345 -3.4683e-05 0)
(0.00206506 5.07169e-06 0)
(0.00206207 4.4901e-05 0)
(0.00205449 8.42969e-05 0)
(0.00204237 0.00012271 0)
(0.00202584 0.000159614 0)
(0.00200506 0.00019446 0)
(0.0019803 0.000226761 0)
(0.00195192 0.000256068 0)
(0.00192031 0.000282045 0)
(0.00188594 0.000304436 0)
(0.00184929 0.000323113 0)
(0.00181084 0.000338032 0)
(0.00177106 0.000349257 0)
(0.00173041 0.000356914 0)
(0.00168928 0.000361207 0)
(0.00164806 0.000362373 0)
(0.00160708 0.000360694 0)
(0.00156664 0.000356465 0)
(0.00152699 0.000350002 0)
(0.00148836 0.000341618 0)
(0.00145094 0.000331631 0)
(0.00141486 0.00032035 0)
(0.00138025 0.000308077 0)
(0.0013472 0.000295097 0)
(0.00131578 0.000281689 0)
(0.00128603 0.00026811 0)
(0.00125797 0.000254606 0)
(0.00123159 0.000241402 0)
(0.00120688 0.000228711 0)
(0.00118381 0.000216721 0)
(0.00116233 0.00020561 0)
(0.00114236 0.000195528 0)
(0.00112382 0.000186611 0)
(0.0011066 0.000178971 0)
(0.00109068 0.0001727 0)
(0.00107579 0.00016786 0)
(0.00106037 0.000164521 0)
(0.00104529 0.00016289 0)
(0.00100228 2.55912e-05 0)
(0.00101363 6.73432e-05 0)
(0.00103611 9.779e-05 0)
(0.00106536 0.000116282 0)
(0.00109834 0.0001232 0)
(0.0011331 0.000119599 0)
(0.00116822 0.000106941 0)
(0.00120275 8.68698e-05 0)
(0.00123624 6.10311e-05 0)
(0.00126856 3.09586e-05 0)
(0.00129981 -1.98777e-06 0)
(0.00133026 -3.66437e-05 0)
(0.00136025 -7.2033e-05 0)
(0.00139012 -0.000107349 0)
(0.00142022 -0.000141922 0)
(0.00145084 -0.000175194 0)
(0.00148223 -0.000206687 0)
(0.00151457 -0.000235983 0)
(0.00154798 -0.000262699 0)
(0.0015825 -0.000286478 0)
(0.00161812 -0.000306973 0)
(0.00165473 -0.000323851 0)
(0.00169219 -0.000336781 0)
(0.00173025 -0.00034545 0)
(0.00176863 -0.000349557 0)
(0.00180696 -0.000348845 0)
(0.0018448 -0.000343096 0)
(0.00188166 -0.000332179 0)
(0.001917 -0.000316047 0)
(0.00195024 -0.000294793 0)
(0.00198079 -0.000268637 0)
(0.00200809 -0.000237975 0)
(0.00203165 -0.000203324 0)
(0.0020511 -0.00016535 0)
(0.00206617 -0.000124753 0)
(0.00207674 -8.2271e-05 0)
(0.00208278 -3.85571e-05 0)
(0.00208432 5.76931e-06 0)
(0.00208137 5.01765e-05 0)
(0.00207394 9.41019e-05 0)
(0.00206205 0.000136997 0)
(0.00204576 0.000178234 0)
(0.00202523 0.000217213 0)
(0.0020007 0.000253326 0)
(0.00197253 0.000286074 0)
(0.00194115 0.000315035 0)
(0.00190703 0.000339942 0)
(0.00187068 0.000360632 0)
(0.00183261 0.000377086 0)
(0.00179328 0.000389374 0)
(0.00175316 0.000397669 0)
(0.00171266 0.0004022 0)
(0.00167214 0.000403254 0)
(0.00163194 0.000401147 0)
(0.00159235 0.00039622 0)
(0.00155361 0.000388821 0)
(0.00151593 0.000379307 0)
(0.00147948 0.000368023 0)
(0.00144442 0.000355315 0)
(0.00141084 0.00034151 0)
(0.00137885 0.000326926 0)
(0.00134849 0.000311859 0)
(0.0013198 0.000296596 0)
(0.00129281 0.000281396 0)
(0.0012675 0.000266509 0)
(0.00124386 0.000252159 0)
(0.00122184 0.000238557 0)
(0.00120141 0.000225891 0)
(0.00118248 0.000214334 0)
(0.00116497 0.000204037 0)
(0.00114876 0.000195143 0)
(0.00113382 0.000187768 0)
(0.00111989 0.000182014 0)
(0.00110549 0.000177993 0)
(0.00109144 0.000176007 0)
(0.00100206 1.89332e-05 0)
(0.00101245 5.00915e-05 0)
(0.0010333 7.27147e-05 0)
(0.00106083 8.59492e-05 0)
(0.00109239 8.97821e-05 0)
(0.00112625 8.47818e-05 0)
(0.00116104 7.19134e-05 0)
(0.00119582 5.23696e-05 0)
(0.00123002 2.74245e-05 0)
(0.00126338 -1.66983e-06 0)
(0.00129589 -3.37498e-05 0)
(0.00132768 -6.77715e-05 0)
(0.00135896 -0.000102822 0)
(0.00139002 -0.000138111 0)
(0.00142115 -0.000172955 0)
(0.0014526 -0.00020676 0)
(0.00148461 -0.000238999 0)