# Field minima and maxima
# Time        	field         	min           	location(min) 	processor     	max           	location(max) 	processor     
1.199999e-08  	T             	5.727960e+02	(5.000000e-07 5.000000e-07 5.000000e-07)	0	5.730000e+02	(1.575000e-04 2.950000e-05 5.000000e-07)	2
2.639996e-08  	T             	5.727752e+02	(5.000000e-07 5.000000e-07 5.000000e-07)	0	5.730000e+02	(1.585000e-04 2.950000e-05 5.000000e-07)	2
4.367991e-08  	T             	5.727859e+02	(5.000000e-07 5.000000e-07 5.000000e-07)	0	5.730000e+02	(3.665000e-04 5.000000e-07 5.000000e-07)	6
6.441582e-08  	T             	5.728070e+02	(5.000000e-07 5.000000e-07 5.000000e-07)	0	5.730000e+02	(3.665000e-04 5.000000e-07 5.000000e-07)	6
8.92989e-08   	T             	5.728191e+02	(1.500000e-06 7.950000e-05 5.000000e-07)	0	5.730000e+02	(3.655000e-04 5.000000e-07 5.000000e-07)	6
1.191586e-07  	T             	5.728170e+02	(1.500000e-06 1.500000e-06 5.000000e-07)	0	5.730000e+02	(1.495000e-04 3.850000e-05 5.000000e-07)	3
1.549901e-07  	T             	5.728182e+02	(1.500000e-06 2.500000e-06 5.000000e-07)	0	5.730000e+02	(2.295000e-04 4.150000e-05 5.000000e-07)	4
1.97988e-07   	T             	5.728229e+02	(1.500000e-06 3.950000e-05 5.000000e-07)	0	5.730000e+02	(2.295000e-04 4.150000e-05 5.000000e-07)	4
2.495853e-07  	T             	5.728298e+02	(1.500000e-06 3.950000e-05 5.000000e-07)	0	5.730000e+02	(2.295000e-04 4.050000e-05 5.000000e-07)	4
3.115017e-07  	T             	5.728308e+02	(2.500000e-06 3.950000e-05 5.000000e-07)	0	5.730000e+02	(0.000000e+00 5.000000e-07 5.000000e-07)	0
3.858013e-07  	T             	5.728262e+02	(2.500000e-06 4.050000e-05 5.000000e-07)	0	5.730000e+02	(0.000000e+00 5.000000e-07 5.000000e-07)	0
4.749602e-07  	T             	5.728264e+02	(2.500000e-06 3.950000e-05 5.000000e-07)	0	5.730000e+02	(0.000000e+00 5.000000e-07 5.000000e-07)	0
5.819505e-07  	T             	5.728315e+02	(2.500000e-06 4.050000e-05 5.000000e-07)	0	5.730000e+02	(0.000000e+00 5.000000e-07 5.000000e-07)	0
7.103374e-07  	T             	5.728327e+02	(3.500000e-06 7.550000e-05 5.000000e-07)	0	5.730000e+02	(0.000000e+00 5.000000e-07 5.000000e-07)	0
8.644002e-07  	T             	5.728364e+02	(3.500000e-06 5.500000e-06 5.000000e-07)	0	5.730000e+02	(0.000000e+00 5.000000e-07 5.000000e-07)	0
1.049275e-06  	T             	5.728447e+02	(3.500000e-06 6.500000e-06 5.000000e-07)	0	5.730015e+02	(1.395000e-04 3.950000e-05 5.000000e-07)	3
1.271124e-06  	T             	5.728536e+02	(4.500000e-06 6.500000e-06 5.000000e-07)	0	5.730077e+02	(1.785000e-04 3.950000e-05 5.000000e-07)	2
1.537338e-06  	T             	5.728681e+02	(4.500000e-06 7.500000e-06 5.000000e-07)	0	5.730183e+02	(9.650000e-05 4.050000e-05 5.000000e-07)	1
1.856788e-06  	T             	5.728824e+02	(5.500000e-06 7.500000e-06 5.000000e-07)	0	5.730295e+02	(9.550000e-05 4.050000e-05 5.000000e-07)	1
2.240123e-06  	T             	5.728851e+02	(5.500000e-06 8.500000e-06 5.000000e-07)	0	5.730333e+02	(9.350000e-05 3.950000e-05 5.000000e-07)	1
2.700107e-06  	T             	5.728763e+02	(5.500000e-06 9.500000e-06 5.000000e-07)	0	5.730253e+02	(9.150000e-05 3.950000e-05 5.000000e-07)	1
3.252078e-06  	T             	5.728595e+02	(6.500000e-06 6.950000e-05 5.000000e-07)	0	5.730102e+02	(8.950000e-05 3.950000e-05 5.000000e-07)	1
3.914421e-06  	T             	5.728473e+02	(7.500000e-06 6.950000e-05 5.000000e-07)	0	5.730002e+02	(1.005000e-04 3.050000e-05 5.000000e-07)	1
4.709212e-06  	T             	5.728453e+02	(8.500000e-06 6.850000e-05 5.000000e-07)	0	5.730000e+02	(1.845000e-04 3.550000e-05 5.000000e-07)	2
5.662961e-06  	T             	5.728488e+02	(8.500000e-06 6.650000e-05 5.000000e-07)	0	5.730000e+02	(0.000000e+00 5.000000e-07 5.000000e-07)	0
6.807395e-06  	T             	5.728515e+02	(9.500000e-06 6.550000e-05 5.000000e-07)	0	5.730008e+02	(1.295000e-04 5.950000e-05 5.000000e-07)	3
8.180652e-06  	T             	5.728517e+02	(1.050000e-05 6.450000e-05 5.000000e-07)	0	5.730009e+02	(8.350000e-05 4.050000e-05 5.000000e-07)	1
9.82838e-06   	T             	5.728512e+02	(1.150000e-05 6.350000e-05 5.000000e-07)	0	5.730004e+02	(1.295000e-04 6.150000e-05 5.000000e-07)	3
1.180546e-05  	T             	5.728510e+02	(1.250000e-05 6.150000e-05 5.000000e-07)	0	5.730002e+02	(1.295000e-04 6.350000e-05 5.000000e-07)	3
1.417795e-05  	T             	5.728511e+02	(1.450000e-05 6.050000e-05 5.000000e-07)	0	5.730002e+02	(1.295000e-04 6.650000e-05 5.000000e-07)	3
1.702454e-05  	T             	5.728509e+02	(1.550000e-05 5.850000e-05 5.000000e-07)	0	5.730001e+02	(1.295000e-04 7.150000e-05 5.000000e-07)	3
2.043985e-05  	T             	5.728510e+02	(1.650000e-05 5.650000e-05 5.000000e-07)	0	5.730001e+02	(1.315000e-04 7.950000e-05 5.000000e-07)	3
2.453824e-05  	T             	5.728509e+02	(1.850000e-05 5.350000e-05 5.000000e-07)	0	5.730001e+02	(1.335000e-04 7.950000e-05 5.000000e-07)	3
2.945468e-05  	T             	5.728508e+02	(2.050000e-05 4.950000e-05 5.000000e-07)	0	5.730002e+02	(1.005000e-04 4.050000e-05 5.000000e-07)	1
3.535441e-05  	T             	5.728508e+02	(2.250000e-05 4.050000e-05 5.000000e-07)	0	5.730006e+02	(1.005000e-04 4.050000e-05 5.000000e-07)	1
4.243157e-05  	T             	5.728508e+02	(2.450000e-05 4.050000e-05 5.000000e-07)	0	5.730018e+02	(1.005000e-04 4.050000e-05 5.000000e-07)	1
5.092055e-05  	T             	5.728507e+02	(2.650000e-05 4.050000e-05 5.000000e-07)	0	5.730051e+02	(1.005000e-04 4.050000e-05 5.000000e-07)	1
6.110384e-05  	T             	5.728507e+02	(2.950000e-05 4.050000e-05 5.000000e-07)	0	5.730122e+02	(1.005000e-04 4.050000e-05 5.000000e-07)	1
7.331379e-05  	T             	5.728507e+02	(3.250000e-05 3.950000e-05 5.000000e-07)	0	5.730263e+02	(1.005000e-04 4.050000e-05 5.000000e-07)	1
8.795492e-05  	T             	5.728509e+02	(3.550000e-05 3.950000e-05 5.000000e-07)	0	5.730514e+02	(1.005000e-04 4.050000e-05 5.000000e-07)	1
0.0001054984  	T             	5.728516e+02	(3.850000e-05 3.950000e-05 5.000000e-07)	0	5.730916e+02	(1.005000e-04 4.050000e-05 5.000000e-07)	1
0.0001265505  	T             	5.728537e+02	(4.050000e-05 4.050000e-05 5.000000e-07)	0	5.731507e+02	(1.005000e-04 4.050000e-05 5.000000e-07)	1
0.0001518023  	T             	5.728583e+02	(4.350000e-05 7.950000e-05 5.000000e-07)	0	5.732306e+02	(1.005000e-04 4.050000e-05 5.000000e-07)	1
0.0001821044  	T             	5.728679e+02	(4.450000e-05 5.000000e-07 5.000000e-07)	0	5.733313e+02	(1.005000e-04 4.050000e-05 5.000000e-07)	1
0.000218467   	T             	5.728271e+02	(1.065000e-04 4.150000e-05 5.000000e-07)	3	5.734500e+02	(1.005000e-04 4.050000e-05 5.000000e-07)	1
0.0002619405  	T             	5.727499e+02	(1.075000e-04 4.050000e-05 5.000000e-07)	3	5.735814e+02	(1.005000e-04 4.050000e-05 5.000000e-07)	1
0.0003140157  	T             	5.726518e+02	(1.085000e-04 4.050000e-05 5.000000e-07)	3	5.737195e+02	(1.005000e-04 4.050000e-05 5.000000e-07)	1
0.0003765059  	T             	5.725346e+02	(1.095000e-04 4.050000e-05 5.000000e-07)	3	5.738575e+02	(1.005000e-04 4.050000e-05 5.000000e-07)	1
0.0004511066  	T             	5.724069e+02	(1.105000e-04 4.050000e-05 5.000000e-07)	3	5.739883e+02	(1.005000e-04 4.050000e-05 5.000000e-07)	1
0.0005403486  	T             	5.722783e+02	(1.105000e-04 4.050000e-05 5.000000e-07)	3	5.741067e+02	(1.005000e-04 4.050000e-05 5.000000e-07)	1
0.0006399239  	T             	5.721644e+02	(1.105000e-04 4.050000e-05 5.000000e-07)	3	5.742043e+02	(1.005000e-04 4.050000e-05 5.000000e-07)	1
0.0007394992  	T             	5.720715e+02	(1.115000e-04 4.050000e-05 5.000000e-07)	3	5.742773e+02	(1.005000e-04 3.950000e-05 5.000000e-07)	1
0.0008390744  	T             	5.719953e+02	(1.115000e-04 4.050000e-05 5.000000e-07)	3	5.743329e+02	(1.005000e-04 3.950000e-05 5.000000e-07)	1
0.0009386497  	T             	5.719316e+02	(1.115000e-04 4.050000e-05 5.000000e-07)	3	5.743762e+02	(1.005000e-04 3.950000e-05 5.000000e-07)	1
0.001038225   	T             	5.718767e+02	(1.115000e-04 3.950000e-05 5.000000e-07)	3	5.744109e+02	(1.005000e-04 3.950000e-05 5.000000e-07)	1
0.0011378     	T             	5.718284e+02	(1.115000e-04 3.950000e-05 5.000000e-07)	3	5.744394e+02	(1.005000e-04 3.950000e-05 5.000000e-07)	1
0.001237376   	T             	5.717851e+02	(1.115000e-04 3.950000e-05 5.000000e-07)	3	5.744634e+02	(1.005000e-04 3.950000e-05 5.000000e-07)	1
0.001336951   	T             	5.717446e+02	(1.105000e-04 3.950000e-05 5.000000e-07)	3	5.744840e+02	(1.005000e-04 3.950000e-05 5.000000e-07)	1
0.001436526   	T             	5.717071e+02	(1.105000e-04 3.950000e-05 5.000000e-07)	3	5.745020e+02	(1.005000e-04 3.950000e-05 5.000000e-07)	1
0.001536101   	T             	5.716725e+02	(1.105000e-04 3.950000e-05 5.000000e-07)	3	5.745179e+02	(1.005000e-04 3.950000e-05 5.000000e-07)	1
0.001635677   	T             	5.716404e+02	(1.105000e-04 3.950000e-05 5.000000e-07)	3	5.745321e+02	(1.005000e-04 3.950000e-05 5.000000e-07)	1
0.001735252   	T             	5.716106e+02	(1.105000e-04 3.950000e-05 5.000000e-07)	3	5.745450e+02	(1.005000e-04 3.950000e-05 5.000000e-07)	1
0.001834827   	T             	5.715830e+02	(1.105000e-04 3.950000e-05 5.000000e-07)	3	5.745567e+02	(1.005000e-04 3.950000e-05 5.000000e-07)	1
0.001934403   	T             	5.715573e+02	(1.105000e-04 3.950000e-05 5.000000e-07)	3	5.745674e+02	(1.005000e-04 3.950000e-05 5.000000e-07)	1
0.002033978   	T             	5.715335e+02	(1.105000e-04 3.950000e-05 5.000000e-07)	3	5.745772e+02	(1.005000e-04 3.950000e-05 5.000000e-07)	1
0.002133553   	T             	5.715113e+02	(1.105000e-04 3.950000e-05 5.000000e-07)	3	5.745863e+02	(1.005000e-04 3.950000e-05 5.000000e-07)	1
0.002233128   	T             	5.714907e+02	(1.105000e-04 3.950000e-05 5.000000e-07)	3	5.745948e+02	(1.005000e-04 3.950000e-05 5.000000e-07)	1
0.002332704   	T             	5.714714e+02	(1.105000e-04 3.950000e-05 5.000000e-07)	3	5.746027e+02	(1.005000e-04 3.950000e-05 5.000000e-07)	1
0.002432279   	T             	5.714534e+02	(1.105000e-04 3.950000e-05 5.000000e-07)	3	5.746100e+02	(1.005000e-04 3.950000e-05 5.000000e-07)	1
0.002531854   	T             	5.714366e+02	(1.105000e-04 3.950000e-05 5.000000e-07)	3	5.746169e+02	(1.005000e-04 3.950000e-05 5.000000e-07)	1
0.002631429   	T             	5.714208e+02	(1.105000e-04 3.950000e-05 5.000000e-07)	3	5.746235e+02	(1.005000e-04 3.950000e-05 5.000000e-07)	1
0.002731005   	T             	5.714061e+02	(1.105000e-04 3.950000e-05 5.000000e-07)	3	5.746296e+02	(1.005000e-04 3.950000e-05 5.000000e-07)	1
0.00283058    	T             	5.713922e+02	(1.105000e-04 3.950000e-05 5.000000e-07)	3	5.746355e+02	(1.005000e-04 3.950000e-05 5.000000e-07)	1
0.002930155   	T             	5.713791e+02	(1.105000e-04 3.950000e-05 5.000000e-07)	3	5.746411e+02	(1.005000e-04 3.950000e-05 5.000000e-07)	1
0.003029731   	T             	5.713668e+02	(1.105000e-04 3.950000e-05 5.000000e-07)	3	5.746465e+02	(1.005000e-04 3.950000e-05 5.000000e-07)	1
0.003129306   	T             	5.713552e+02	(1.105000e-04 3.950000e-05 5.000000e-07)	3	5.746516e+02	(1.005000e-04 3.950000e-05 5.000000e-07)	1
0.003228881   	T             	5.713442e+02	(1.105000e-04 3.950000e-05 5.000000e-07)	3	5.746566e+02	(1.005000e-04 3.950000e-05 5.000000e-07)	1
0.003328456   	T             	5.713337e+02	(1.105000e-04 3.950000e-05 5.000000e-07)	3	5.746614e+02	(1.005000e-04 3.950000e-05 5.000000e-07)	1
0.003428032   	T             	5.713238e+02	(1.105000e-04 3.950000e-05 5.000000e-07)	3	5.746660e+02	(1.005000e-04 3.950000e-05 5.000000e-07)	1
0.003527607   	T             	5.713144e+02	(1.105000e-04 3.950000e-05 5.000000e-07)	3	5.746705e+02	(1.005000e-04 3.950000e-05 5.000000e-07)	1
0.003627182   	T             	5.713054e+02	(1.105000e-04 3.950000e-05 5.000000e-07)	3	5.746749e+02	(1.005000e-04 3.950000e-05 5.000000e-07)	1
0.003726758   	T             	5.712969e+02	(1.105000e-04 3.950000e-05 5.000000e-07)	3	5.746791e+02	(1.005000e-04 3.950000e-05 5.000000e-07)	1
0.003826333   	T             	5.712887e+02	(1.105000e-04 3.950000e-05 5.000000e-07)	3	5.746833e+02	(1.005000e-04 3.950000e-05 5.000000e-07)	1
0.003925908   	T             	5.712809e+02	(1.105000e-04 3.950000e-05 5.000000e-07)	3	5.746874e+02	(1.005000e-04 3.950000e-05 5.000000e-07)	1
0.004025483   	T             	5.712734e+02	(1.105000e-04 3.950000e-05 5.000000e-07)	3	5.746914e+02	(1.005000e-04 3.950000e-05 5.000000e-07)	1
0.004125059   	T             	5.712662e+02	(1.105000e-04 3.950000e-05 5.000000e-07)	3	5.746953e+02	(1.005000e-04 3.950000e-05 5.000000e-07)	1
0.004224634   	T             	5.712593e+02	(1.105000e-04 3.950000e-05 5.000000e-07)	3	5.746992e+02	(1.005000e-04 3.950000e-05 5.000000e-07)	1
0.004324209   	T             	5.712527e+02	(1.105000e-04 3.950000e-05 5.000000e-07)	3	5.747030e+02	(1.005000e-04 3.950000e-05 5.000000e-07)	1
0.004423784   	T             	5.712463e+02	(1.105000e-04 3.950000e-05 5.000000e-07)	3	5.747068e+02	(1.005000e-04 3.950000e-05 5.000000e-07)	1
0.00452336    	T             	5.712401e+02	(1.105000e-04 3.950000e-05 5.000000e-07)	3	5.747105e+02	(1.005000e-04 3.950000e-05 5.000000e-07)	1
0.004622935   	T             	5.712342e+02	(1.105000e-04 3.950000e-05 5.000000e-07)	3	5.747141e+02	(1.005000e-04 3.950000e-05 5.000000e-07)	1
0.00472251    	T             	5.712285e+02	(1.105000e-04 3.950000e-05 5.000000e-07)	3	5.747178e+02	(1.005000e-04 3.950000e-05 5.000000e-07)	1
0.004822086   	T             	5.712229e+02	(1.105000e-04 3.950000e-05 5.000000e-07)	3	5.747214e+02	(1.005000e-04 3.950000e-05 5.000000e-07)	1
0.004921661   	T             	5.712175e+02	(1.105000e-04 3.950000e-05 5.000000e-07)	3	5.747250e+02	(1.005000e-04 3.950000e-05 5.000000e-07)	1
0.005021236   	T             	5.712123e+02	(1.105000e-04 3.950000e-05 5.000000e-07)	3	5.747285e+02	(1.005000e-04 3.950000e-05 5.000000e-07)	1
0.005120811   	T             	5.712073e+02	(1.105000e-04 3.950000e-05 5.000000e-07)	3	5.747320e+02	(1.005000e-04 3.950000e-05 5.000000e-07)	1
0.005220387   	T             	5.712024e+02	(1.105000e-04 3.950000e-05 5.000000e-07)	3	5.747355e+02	(1.005000e-04 3.950000e-05 5.000000e-07)	1
0.005319962   	T             	5.711977e+02	(1.105000e-04 3.950000e-05 5.000000e-07)	3	5.747390e+02	(1.005000e-04 3.950000e-05 5.000000e-07)	1
0.005419537   	T             	5.711931e+02	(1.105000e-04 3.950000e-05 5.000000e-07)	3	5.747425e+02	(1.005000e-04 3.950000e-05 5.000000e-07)	1
0.005519113   	T             	5.711886e+02	(1.105000e-04 3.950000e-05 5.000000e-07)	3	5.747459e+02	(1.005000e-04 3.950000e-05 5.000000e-07)	1
0.005618688   	T             	5.711843e+02	(1.105000e-04 3.950000e-05 5.000000e-07)	3	5.747493e+02	(1.005000e-04 3.950000e-05 5.000000e-07)	1
0.005718263   	T             	5.711800e+02	(1.105000e-04 3.950000e-05 5.000000e-07)	3	5.747527e+02	(1.005000e-04 3.950000e-05 5.000000e-07)	1
0.005817838   	T             	5.711759e+02	(1.105000e-04 3.950000e-05 5.000000e-07)	3	5.747562e+02	(1.005000e-04 3.950000e-05 5.000000e-07)	1
0.005917414   	T             	5.711719e+02	(1.105000e-04 3.950000e-05 5.000000e-07)	3	5.747596e+02	(1.005000e-04 3.950000e-05 5.000000e-07)	1
0.006016989   	T             	5.711681e+02	(1.105000e-04 3.950000e-05 5.000000e-07)	3	5.747629e+02	(1.005000e-04 3.950000e-05 5.000000e-07)	1
0.006116564   	T             	5.711643e+02	(1.105000e-04 3.950000e-05 5.000000e-07)	3	5.747663e+02	(1.005000e-04 3.950000e-05 5.000000e-07)	1
0.006216139   	T             	5.711606e+02	(1.105000e-04 3.950000e-05 5.000000e-07)	3	5.747697e+02	(1.005000e-04 3.950000e-05 5.000000e-07)	1
0.006315715   	T             	5.711570e+02	(1.105000e-04 3.950000e-05 5.000000e-07)	3	5.747731e+02	(1.005000e-04 3.950000e-05 5.000000e-07)	1
0.00641529    	T             	5.711535e+02	(1.105000e-04 3.950000e-05 5.000000e-07)	3	5.747765e+02	(1.005000e-04 3.950000e-05 5.000000e-07)	1
0.006514865   	T             	5.711501e+02	(1.105000e-04 3.950000e-05 5.000000e-07)	3	5.747798e+02	(1.005000e-04 3.950000e-05 5.000000e-07)	1
0.006614441   	T             	5.711468e+02	(1.105000e-04 3.950000e-05 5.000000e-07)	3	5.747832e+02	(1.005000e-04 3.950000e-05 5.000000e-07)	1
0.006714016   	T             	5.711435e+02	(1.105000e-04 3.950000e-05 5.000000e-07)	3	5.747865e+02	(1.005000e-04 3.950000e-05 5.000000e-07)	1
0.006813591   	T             	5.711404e+02	(1.105000e-04 3.950000e-05 5.000000e-07)	3	5.747899e+02	(1.005000e-04 3.950000e-05 5.000000e-07)	1
0.006913166   	T             	5.711373e+02	(1.105000e-04 3.950000e-05 5.000000e-07)	3	5.747933e+02	(1.005000e-04 3.950000e-05 5.000000e-07)	1
0.007012742   	T             	5.711343e+02	(1.105000e-04 3.950000e-05 5.000000e-07)	3	5.747966e+02	(1.005000e-04 3.950000e-05 5.000000e-07)	1
0.007112317   	T             	5.711314e+02	(1.105000e-04 3.950000e-05 5.000000e-07)	3	5.748000e+02	(1.005000e-04 3.950000e-05 5.000000e-07)	1
0.007211892   	T             	5.711285e+02	(1.105000e-04 3.950000e-05 5.000000e-07)	3	5.748034e+02	(1.005000e-04 3.950000e-05 5.000000e-07)	1
0.007311468   	T             	5.711258e+02	(1.105000e-04 3.950000e-05 5.000000e-07)	3	5.748067e+02	(1.005000e-04 3.950000e-05 5.000000e-07)	1
0.007411043   	T             	5.711231e+02	(1.105000e-04 3.950000e-05 5.000000e-07)	3	5.748101e+02	(1.005000e-04 3.950000e-05 5.000000e-07)	1
0.007510618   	T             	5.711204e+02	(1.105000e-04 3.950000e-05 5.000000e-07)	3	5.748135e+02	(1.005000e-04 3.950000e-05 5.000000e-07)	1
0.007610193   	T             	5.711179e+02	(1.105000e-04 3.950000e-05 5.000000e-07)	3	5.748168e+02	(1.005000e-04 3.950000e-05 5.000000e-07)	1
0.007709769   	T             	5.711154e+02	(1.105000e-04 3.950000e-05 5.000000e-07)	3	5.748202e+02	(1.005000e-04 3.950000e-05 5.000000e-07)	1
0.007809344   	T             	5.711130e+02	(1.105000e-04 3.950000e-05 5.000000e-07)	3	5.748236e+02	(1.005000e-04 3.950000e-05 5.000000e-07)	1
0.007908919   	T             	5.711106e+02	(1.105000e-04 3.950000e-05 5.000000e-07)	3	5.748270e+02	(1.005000e-04 3.950000e-05 5.000000e-07)	1
0.008008494   	T             	5.711083e+02	(1.105000e-04 3.950000e-05 5.000000e-07)	3	5.748303e+02	(1.005000e-04 3.950000e-05 5.000000e-07)	1
0.00810807    	T             	5.711061e+02	(1.105000e-04 3.950000e-05 5.000000e-07)	3	5.748337e+02	(1.005000e-04 3.950000e-05 5.000000e-07)	1
0.008207645   	T             	5.711039e+02	(1.105000e-04 3.950000e-05 5.000000e-07)	3	5.748371e+02	(1.005000e-04 3.950000e-05 5.000000e-07)	1
0.00830722    	T             	5.711018e+02	(1.105000e-04 3.950000e-05 5.000000e-07)	3	5.748405e+02	(1.005000e-04 3.950000e-05 5.000000e-07)	1
0.008406796   	T             	5.710998e+02	(1.105000e-04 3.950000e-05 5.000000e-07)	3	5.748439e+02	(1.005000e-04 3.950000e-05 5.000000e-07)	1
0.008506371   	T             	5.710978e+02	(1.105000e-04 3.950000e-05 5.000000e-07)	3	5.748473e+02	(1.005000e-04 3.950000e-05 5.000000e-07)	1
0.008605946   	T             	5.710959e+02	(1.105000e-04 3.950000e-05 5.000000e-07)	3	5.748508e+02	(1.005000e-04 3.950000e-05 5.000000e-07)	1
0.008705521   	T             	5.710941e+02	(1.105000e-04 3.950000e-05 5.000000e-07)	3	5.748550e+02	(1.405000e-04 4.050000e-05 5.000000e-07)	3
0.008805097   	T             	5.710923e+02	(1.105000e-04 3.950000e-05 5.000000e-07)	3	5.748622e+02	(1.405000e-04 3.950000e-05 5.000000e-07)	3
0.008904672   	T             	5.710905e+02	(1.105000e-04 3.950000e-05 5.000000e-07)	3	5.748694e+02	(1.405000e-04 4.050000e-05 5.000000e-07)	3
0.009004247   	T             	5.710888e+02	(1.105000e-04 3.950000e-05 5.000000e-07)	3	5.748765e+02	(1.405000e-04 4.050000e-05 5.000000e-07)	3
0.009103823   	T             	5.710872e+02	(1.105000e-04 3.950000e-05 5.000000e-07)	3	5.748837e+02	(1.405000e-04 3.950000e-05 5.000000e-07)	3
0.009203398   	T             	5.710857e+02	(1.105000e-04 3.950000e-05 5.000000e-07)	3	5.748908e+02	(1.405000e-04 4.050000e-05 5.000000e-07)	3
0.009302973   	T             	5.710841e+02	(1.105000e-04 3.950000e-05 5.000000e-07)	3	5.748979e+02	(1.405000e-04 4.050000e-05 5.000000e-07)	3
0.009402548   	T             	5.710827e+02	(1.105000e-04 3.950000e-05 5.000000e-07)	3	5.749050e+02	(1.405000e-04 4.050000e-05 5.000000e-07)	3
0.009502124   	T             	5.710813e+02	(1.105000e-04 3.950000e-05 5.000000e-07)	3	5.749121e+02	(1.405000e-04 4.050000e-05 5.000000e-07)	3
0.009601699   	T             	5.710800e+02	(1.105000e-04 3.950000e-05 5.000000e-07)	3	5.749192e+02	(1.405000e-04 4.050000e-05 5.000000e-07)	3
0.009701274   	T             	5.710787e+02	(1.105000e-04 3.950000e-05 5.000000e-07)	3	5.749263e+02	(1.405000e-04 4.050000e-05 5.000000e-07)	3
0.009800849   	T             	5.710774e+02	(1.105000e-04 3.950000e-05 5.000000e-07)	3	5.749334e+02	(1.405000e-04 4.050000e-05 5.000000e-07)	3
0.009900425   	T             	5.710763e+02	(1.105000e-04 3.950000e-05 5.000000e-07)	3	5.749405e+02	(1.405000e-04 4.050000e-05 5.000000e-07)	3
0.01          	T             	5.710751e+02	(1.105000e-04 3.950000e-05 5.000000e-07)	3	5.749475e+02	(1.405000e-04 4.050000e-05 5.000000e-07)	3
0.0101        	T             	5.710740e+02	(1.105000e-04 3.950000e-05 5.000000e-07)	3	5.749546e+02	(1.405000e-04 4.050000e-05 5.000000e-07)	3
0.0102        	T             	5.710730e+02	(1.105000e-04 3.950000e-05 5.000000e-07)	3	5.749617e+02	(1.405000e-04 4.050000e-05 5.000000e-07)	3
0.0103        	T             	5.710720e+02	(1.105000e-04 3.950000e-05 5.000000e-07)	3	5.749688e+02	(1.405000e-04 4.050000e-05 5.000000e-07)	3
0.0104        	T             	5.710711e+02	(1.105000e-04 3.950000e-05 5.000000e-07)	3	5.749759e+02	(1.405000e-04 4.050000e-05 5.000000e-07)	3
0.0105        	T             	5.710703e+02	(1.105000e-04 3.950000e-05 5.000000e-07)	3	5.749829e+02	(1.405000e-04 4.050000e-05 5.000000e-07)	3
0.0106        	T             	5.710694e+02	(1.105000e-04 3.950000e-05 5.000000e-07)	3	5.749900e+02	(1.405000e-04 4.050000e-05 5.000000e-07)	3
0.0107        	T             	5.710687e+02	(1.105000e-04 3.950000e-05 5.000000e-07)	3	5.749970e+02	(1.405000e-04 4.050000e-05 5.000000e-07)	3
0.0108        	T             	5.710680e+02	(1.105000e-04 3.950000e-05 5.000000e-07)	3	5.750041e+02	(1.405000e-04 4.050000e-05 5.000000e-07)	3
0.0109        	T             	5.710673e+02	(1.105000e-04 3.950000e-05 5.000000e-07)	3	5.750111e+02	(1.405000e-04 4.050000e-05 5.000000e-07)	3
0.011         	T             	5.710667e+02	(1.105000e-04 3.950000e-05 5.000000e-07)	3	5.750182e+02	(1.405000e-04 4.050000e-05 5.000000e-07)	3
0.0111        	T             	5.710661e+02	(1.105000e-04 3.950000e-05 5.000000e-07)	3	5.750252e+02	(1.405000e-04 4.050000e-05 5.000000e-07)	3
0.0112        	T             	5.710656e+02	(1.105000e-04 3.950000e-05 5.000000e-07)	3	5.750323e+02	(1.405000e-04 4.050000e-05 5.000000e-07)	3
0.0113        	T             	5.710651e+02	(1.105000e-04 3.950000e-05 5.000000e-07)	3	5.750393e+02	(1.405000e-04 4.050000e-05 5.000000e-07)	3
0.0114        	T             	5.710647e+02	(1.105000e-04 3.950000e-05 5.000000e-07)	3	5.750463e+02	(1.405000e-04 4.050000e-05 5.000000e-07)	3
0.0115        	T             	5.710643e+02	(1.105000e-04 3.950000e-05 5.000000e-07)	3	5.750534e+02	(1.405000e-04 4.050000e-05 5.000000e-07)	3
0.0116        	T             	5.710640e+02	(1.105000e-04 3.950000e-05 5.000000e-07)	3	5.750604e+02	(1.405000e-04 4.050000e-05 5.000000e-07)	3
0.0117        	T             	5.710637e+02	(1.105000e-04 3.950000e-05 5.000000e-07)	3	5.750674e+02	(1.405000e-04 4.050000e-05 5.000000e-07)	3
0.0118        	T             	5.710635e+02	(1.105000e-04 3.950000e-05 5.000000e-07)	3	5.750744e+02	(1.405000e-04 4.050000e-05 5.000000e-07)	3
0.0119        	T             	5.710633e+02	(1.105000e-04 3.950000e-05 5.000000e-07)	3	5.750815e+02	(1.405000e-04 4.050000e-05 5.000000e-07)	3
0.012         	T             	5.710632e+02	(1.105000e-04 3.950000e-05 5.000000e-07)	3	5.750885e+02	(1.405000e-04 3.950000e-05 5.000000e-07)	3
0.0121        	T             	5.710631e+02	(1.105000e-04 3.950000e-05 5.000000e-07)	3	5.750955e+02	(1.405000e-04 3.950000e-05 5.000000e-07)	3
0.0122        	T             	5.710630e+02	(1.105000e-04 3.950000e-05 5.000000e-07)	3	5.751025e+02	(1.405000e-04 4.050000e-05 5.000000e-07)	3
0.0123        	T             	5.710630e+02	(1.105000e-04 3.950000e-05 5.000000e-07)	3	5.751095e+02	(1.405000e-04 4.050000e-05 5.000000e-07)	3
0.0124        	T             	5.710631e+02	(1.105000e-04 3.950000e-05 5.000000e-07)	3	5.751165e+02	(1.405000e-04 3.950000e-05 5.000000e-07)	3
0.0125        	T             	5.710632e+02	(1.105000e-04 3.950000e-05 5.000000e-07)	3	5.751236e+02	(1.405000e-04 4.050000e-05 5.000000e-07)	3
0.0126        	T             	5.710633e+02	(1.105000e-04 3.950000e-05 5.000000e-07)	3	5.751306e+02	(1.405000e-04 4.050000e-05 5.000000e-07)	3
0.0127        	T             	5.710635e+02	(1.105000e-04 3.950000e-05 5.000000e-07)	3	5.751376e+02	(1.405000e-04 4.050000e-05 5.000000e-07)	3
0.0128        	T             	5.710637e+02	(1.105000e-04 3.950000e-05 5.000000e-07)	3	5.751446e+02	(1.405000e-04 4.050000e-05 5.000000e-07)	3
0.0129        	T             	5.710640e+02	(1.105000e-04 3.950000e-05 5.000000e-07)	3	5.751516e+02	(1.405000e-04 4.050000e-05 5.000000e-07)	3
0.013         	T             	5.710643e+02	(1.105000e-04 3.950000e-05 5.000000e-07)	3	5.751586e+02	(1.405000e-04 3.950000e-05 5.000000e-07)	3
0.0131        	T             	5.710646e+02	(1.105000e-04 3.950000e-05 5.000000e-07)	3	5.751656e+02	(1.405000e-04 3.950000e-05 5.000000e-07)	3
0.0132        	T             	5.710650e+02	(1.105000e-04 3.950000e-05 5.000000e-07)	3	5.751726e+02	(1.405000e-04 4.050000e-05 5.000000e-07)	3
0.0133        	T             	5.710654e+02	(1.105000e-04 3.950000e-05 5.000000e-07)	3	5.751796e+02	(1.405000e-04 4.050000e-05 5.000000e-07)	3
0.0134        	T             	5.710659e+02	(1.105000e-04 3.950000e-05 5.000000e-07)	3	5.751867e+02	(1.405000e-04 4.050000e-05 5.000000e-07)	3
0.0135        	T             	5.710664e+02	(1.105000e-04 3.950000e-05 5.000000e-07)	3	5.751937e+02	(1.405000e-04 4.050000e-05 5.000000e-07)	3
0.0136        	T             	5.710670e+02	(1.105000e-04 3.950000e-05 5.000000e-07)	3	5.752007e+02	(1.405000e-04 4.050000e-05 5.000000e-07)	3
0.0137        	T             	5.710676e+02	(1.105000e-04 3.950000e-05 5.000000e-07)	3	5.752077e+02	(1.405000e-04 4.050000e-05 5.000000e-07)	3
0.0138        	T             	5.710682e+02	(1.105000e-04 3.950000e-05 5.000000e-07)	3	5.752147e+02	(1.405000e-04 3.950000e-05 5.000000e-07)	3
0.0139        	T             	5.710689e+02	(1.105000e-04 3.950000e-05 5.000000e-07)	3	5.752217e+02	(1.405000e-04 4.050000e-05 5.000000e-07)	3
0.014         	T             	5.710696e+02	(1.105000e-04 3.950000e-05 5.000000e-07)	3	5.752287e+02	(1.405000e-04 4.050000e-05 5.000000e-07)	3
0.0141        	T             	5.710704e+02	(1.105000e-04 3.950000e-05 5.000000e-07)	3	5.752357e+02	(1.405000e-04 3.950000e-05 5.000000e-07)	3
0.0142        	T             	5.710712e+02	(1.105000e-04 3.950000e-05 5.000000e-07)	3	5.752432e+02	(1.805000e-04 4.050000e-05 5.000000e-07)	2
0.0143        	T             	5.710721e+02	(1.105000e-04 3.950000e-05 5.000000e-07)	3	5.752527e+02	(1.805000e-04 4.050000e-05 5.000000e-07)	2
0.0144        	T             	5.710729e+02	(1.105000e-04 3.950000e-05 5.000000e-07)	3	5.752622e+02	(1.805000e-04 4.050000e-05 5.000000e-07)	2
0.0145        	T             	5.710739e+02	(1.105000e-04 3.950000e-05 5.000000e-07)	3	5.752716e+02	(1.805000e-04 4.050000e-05 5.000000e-07)	2
0.0146        	T             	5.710748e+02	(1.105000e-04 3.950000e-05 5.000000e-07)	3	5.752811e+02	(1.805000e-04 4.050000e-05 5.000000e-07)	2
0.0147        	T             	5.710758e+02	(1.105000e-04 3.950000e-05 5.000000e-07)	3	5.752906e+02	(1.805000e-04 4.050000e-05 5.000000e-07)	2
0.0148        	T             	5.710768e+02	(1.105000e-04 3.950000e-05 5.000000e-07)	3	5.753000e+02	(1.805000e-04 4.050000e-05 5.000000e-07)	2
0.0149        	T             	5.710779e+02	(1.105000e-04 3.950000e-05 5.000000e-07)	3	5.753095e+02	(1.805000e-04 4.050000e-05 5.000000e-07)	2
0.015         	T             	5.710790e+02	(1.105000e-04 3.950000e-05 5.000000e-07)	3	5.753189e+02	(1.805000e-04 3.950000e-05 5.000000e-07)	2
0.0151        	T             	5.710802e+02	(1.105000e-04 3.950000e-05 5.000000e-07)	3	5.753284e+02	(1.805000e-04 3.950000e-05 5.000000e-07)	2
0.0152        	T             	5.710814e+02	(1.105000e-04 3.950000e-05 5.000000e-07)	3	5.753378e+02	(1.805000e-04 4.050000e-05 5.000000e-07)	2
0.0153        	T             	5.710826e+02	(1.105000e-04 3.950000e-05 5.000000e-07)	3	5.753472e+02	(1.805000e-04 4.050000e-05 5.000000e-07)	2
0.0154        	T             	5.710838e+02	(1.105000e-04 3.950000e-05 5.000000e-07)	3	5.753567e+02	(1.805000e-04 4.050000e-05 5.000000e-07)	2
0.0155        	T             	5.710851e+02	(1.105000e-04 3.950000e-05 5.000000e-07)	3	5.753661e+02	(1.805000e-04 3.950000e-05 5.000000e-07)	2
0.0156        	T             	5.710864e+02	(1.105000e-04 3.950000e-05 5.000000e-07)	3	5.753755e+02	(1.805000e-04 4.050000e-05 5.000000e-07)	2
0.0157        	T             	5.710878e+02	(1.105000e-04 3.950000e-05 5.000000e-07)	3	5.753849e+02	(1.805000e-04 4.050000e-05 5.000000e-07)	2
0.0158        	T             	5.710892e+02	(1.105000e-04 3.950000e-05 5.000000e-07)	3	5.753944e+02	(1.805000e-04 4.050000e-05 5.000000e-07)	2
0.0159        	T             	5.710906e+02	(1.105000e-04 3.950000e-05 5.000000e-07)	3	5.754038e+02	(1.805000e-04 4.050000e-05 5.000000e-07)	2
0.016         	T             	5.710921e+02	(1.105000e-04 3.950000e-05 5.000000e-07)	3	5.754132e+02	(1.805000e-04 4.050000e-05 5.000000e-07)	2
0.0161        	T             	5.710936e+02	(1.105000e-04 3.950000e-05 5.000000e-07)	3	5.754226e+02	(1.805000e-04 4.050000e-05 5.000000e-07)	2
0.0162        	T             	5.710951e+02	(1.105000e-04 3.950000e-05 5.000000e-07)	3	5.754320e+02	(1.805000e-04 4.050000e-05 5.000000e-07)	2
0.0163        	T             	5.710967e+02	(1.105000e-04 3.950000e-05 5.000000e-07)	3	5.754413e+02	(1.805000e-04 4.050000e-05 5.000000e-07)	2
0.0164        	T             	5.710983e+02	(1.105000e-04 3.950000e-05 5.000000e-07)	3	5.754507e+02	(1.805000e-04 4.050000e-05 5.000000e-07)	2
0.0165        	T             	5.710999e+02	(1.105000e-04 3.950000e-05 5.000000e-07)	3	5.754601e+02	(1.805000e-04 4.050000e-05 5.000000e-07)	2